bmim

25 atoms

10 atom types

40.0   80.0 xlo xhi
60.0  100.0 ylo yhi
200.0 240.0 zlo zhi

Masses

1 14.0067
2 12.0107
3 12.0107
4 12.0107
5 12.0107
6 12.0107
7 12.0107
8 1.00794
9 1.00794
10 1.00794

Pair Coeffs

1   0.1700   3.2500
2   0.0660   3.5000
3   0.0700   3.5500
4   0.0660   3.5000
5   0.0660   3.5000
6   0.0660   3.5000
7   0.0700   3.5500
8   0.0300   1.7200
9   0.0300   1.9200
10   0.0300   2.5000

Atoms

1      1      1      0.150   64.087   83.490  216.463
2      1      2      -0.170   64.749   84.436  215.549
3      1      3      -0.110   63.617   83.904  217.613
4      1      4      0.010   66.227   84.317  215.455
5      1      5      -0.120   66.967   85.261  216.443
6      1      6      -0.180   68.426   85.533  216.084
7      1      1      0.150   63.084   82.938  218.295
8      1      7      -0.130   63.397   81.739  217.597
9      1      7      -0.130   64.171   82.109  216.517
10     1      2      -0.170   62.470   83.037  219.614
11     1      8      0.210   63.576   84.911  218.015
12     1      8      0.210   63.198   80.744  218.022
13     1      8      0.210   64.636   81.413  215.816
14     1      9      0.130   62.309   83.980  220.148
15     1      9      0.130   62.965   82.366  220.395
16     1      9      0.130   61.413   82.703  219.580
17     1      9      0.130   64.386   84.313  214.563
18     1      9      0.130   64.406   85.490  215.836
19     1      10     0.060   66.510   83.262  215.592
20     1      10     0.060   66.480   84.700  214.411
21     1      10     0.060   66.565   86.240  216.486
22     1      10     0.060   66.880   84.992  217.474
23     1      10     0.060   69.023   84.672  216.134
24     1      10     0.060   68.566   85.879  215.078
25     1      10     0.060   68.852   86.117  216.910
