system2_GMX

2230 atoms
21 bonds
30 angles
3 dihedrals
3 impropers

0 atom types
0 bond types
0 angle types
0 dihedral types
0 improper types

0.0   2.978830 xlo xhi
0.0   3.286160 ylo yhi
0.0   3.585610 zlo zhi

Masses

1 1.008
1 12.01
1 14.01
1 16.0
1 35.453

Atoms

1      1      1      -0.04840000    1.626    1.808    2.193
2      1      1      -0.12040000    1.656    1.672    2.180
3      1      1      -0.11960000    1.563    1.876    2.088
4      1      1      -0.07280000    1.624    1.605    2.062
5      1      1      -0.07250000    1.531    1.808    1.971
6      1      1      -0.16820000    1.561    1.673    1.957
7      1      1      0.52970000    1.528    1.603    1.835
8      1      1      -0.81870000    1.468    1.668    1.734
9      1      1      -0.81910000    1.557    1.472    1.821
10     1      1      0.17000000    1.651    1.860    2.285
11     1      1      0.17100000    1.704    1.619    2.261
12     1      1      0.17180000    1.540    1.981    2.099
13     1      1      0.14090000    1.647    1.499    2.053
14     1      1      0.14030000    1.483    1.862    1.889
15     1      1      0.48580000    1.445    1.766    1.742
16     1      1      0.47250000    1.444    1.620    1.648
17     1      1      0.48500000    1.602    1.421    1.896
18     1      1      0.47270000    1.535    1.422    1.736
19     2      1      -1.00000000    1.406    1.384    1.410
20     3      1      -0.83400000    2.716    2.491    2.575
21     3      1      0.41700000    2.708    2.399    2.548
22     3      1      0.41700000    2.675    2.541    2.504
23     4      1      -0.83400000    2.529    2.669    2.763
24     4      1      0.41700000    2.452    2.621    2.792
25     4      1      0.41700000    2.594    2.601    2.745
26     5      1      -0.83400000    1.931    2.700    2.851
27     5      1      0.41700000    1.848    2.674    2.891
28     5      1      0.41700000    1.992    2.707    2.924
29     6      1      -0.83400000    1.772    2.196    2.229
30     6      1      0.41700000    1.683    2.230    2.219
31     6      1      0.41700000    1.800    2.176    2.140
32     7      1      -0.83400000    1.568    2.456    2.818
33     7      1      0.41700000    1.625    2.379    2.818
34     7      1      0.41700000    1.568    2.486    2.727
35     8      1      -0.83400000    2.473    2.936    2.764
36     8      1      0.41700000    2.466    2.842    2.748
37     8      1      0.41700000    2.549    2.945    2.821
38     9      1      -0.83400000    1.692    1.997    2.996
39     9      1      0.41700000    1.674    1.907    3.024
40     9      1      0.41700000    1.652    2.052    3.064
41     10     1      -0.83400000    2.576    2.217    2.786
42     10     1      0.41700000    2.614    2.130    2.775
43     10     1      0.41700000    2.566    2.251    2.697
44     11     1      -0.83400000    1.989    2.054    2.332
45     11     1      0.41700000    2.000    2.144    2.363
46     11     1      0.41700000    1.898    2.049    2.303
47     12     1      -0.83400000    1.754    2.246    2.857
48     12     1      0.41700000    1.822    2.273    2.919
49     12     1      0.41700000    1.723    2.162    2.890
50     13     1      -0.83400000    2.173    2.351    2.766
51     13     1      0.41700000    2.224    2.401    2.830
52     13     1      0.41700000    2.226    2.273    2.748
53     14     1      -0.83400000    2.002    1.815    3.192
54     14     1      0.41700000    2.002    1.867    3.112
55     14     1      0.41700000    1.919    1.767    3.190
56     15     1      -0.83400000    2.640    2.826    2.342
57     15     1      0.41700000    2.579    2.873    2.286
58     15     1      0.41700000    2.692    2.896    2.384
59     16     1      -0.83400000    2.127    2.779    3.010
60     16     1      0.41700000    2.093    2.842    3.074
61     16     1      0.41700000    2.144    2.832    2.932
62     17     1      -0.83400000    1.970    1.986    2.993
63     17     1      0.41700000    2.004    2.071    2.964
64     17     1      0.41700000    1.876    2.001    3.005
65     18     1      -0.83400000    2.048    2.976    3.192
66     18     1      0.41700000    2.110    3.043    3.163
67     18     1      0.41700000    1.962    3.017    3.182
68     19     1      -0.83400000    1.577    2.895    2.080
69     19     1      0.41700000    1.540    2.944    2.007
70     19     1      0.41700000    1.603    2.962    2.143
71     20     1      -0.83400000    2.338    1.735    2.626
72     20     1      0.41700000    2.369    1.680    2.554
73     20     1      0.41700000    2.245    1.748    2.607
74     21     1      -0.83400000    2.577    2.542    2.299
75     21     1      0.41700000    2.484    2.535    2.322
76     21     1      0.41700000    2.592    2.635    2.288
77     22     1      -0.83400000    2.576    2.169    1.999
78     22     1      0.41700000    2.482    2.185    2.007
79     22     1      0.41700000    2.607    2.241    1.944
80     23     1      -0.83400000    2.138    2.594    2.577
81     23     1      0.41700000    2.097    2.523    2.528
82     23     1      0.41700000    2.146    2.560    2.666
83     24     1      -0.83400000    2.184    2.963    2.794
84     24     1      0.41700000    2.155    2.902    2.726
85     24     1      0.41700000    2.279    2.967    2.783
86     25     1      -0.83400000    2.009    2.272    2.955
87     25     1      0.41700000    2.064    2.283    2.878
88     25     1      0.41700000    2.060    2.309    3.027
89     26     1      -0.83400000    1.976    2.624    3.316
90     26     1      0.41700000    1.962    2.711    3.353
91     26     1      0.41700000    1.888    2.590    3.302
92     27     1      -0.83400000    1.808    2.484    2.327
93     27     1      0.41700000    1.796    2.556    2.266
94     27     1      0.41700000    1.777    2.407    2.280
95     28     1      -0.83400000    1.571    2.801    2.908
96     28     1      0.41700000    1.579    2.814    2.814
97     28     1      0.41700000    1.633    2.730    2.927
98     29     1      -0.83400000    1.696    2.971    2.549
99     29     1      0.41700000    1.655    2.985    2.464
100    29     1      0.41700000    1.785    2.942    2.529
101    30     1      -0.83400000    1.577    2.905    3.162
102    30     1      0.41700000    1.593    2.858    3.080
103    30     1      0.41700000    1.624    2.854    3.229
104    31     1      -0.83400000    2.054    1.818    2.666
105    31     1      0.41700000    2.010    1.896    2.632
106    31     1      0.41700000    2.110    1.850    2.736
107    32     1      -0.83400000    2.483    2.105    3.226
108    32     1      0.41700000    2.437    2.125    3.307
109    32     1      0.41700000    2.443    2.023    3.196
110    33     1      -0.83400000    2.366    1.780    2.154
111    33     1      0.41700000    2.303    1.780    2.226
112    33     1      0.41700000    2.357    1.693    2.114
113    34     1      -0.83400000    2.258    1.872    2.852
114    34     1      0.41700000    2.288    1.963    2.843
115    34     1      0.41700000    2.313    1.824    2.790
116    35     1      -0.83400000    2.033    2.330    2.438
117    35     1      0.41700000    2.011    2.309    2.529
118    35     1      0.41700000    1.955    2.374    2.404
119    36     1      -0.83400000    2.756    2.331    2.298
120    36     1      0.41700000    2.696    2.403    2.280
121    36     1      0.41700000    2.811    2.325    2.220
122    37     1      -0.83400000    2.617    2.195    2.501
123    37     1      0.41700000    2.656    2.226    2.420
124    37     1      0.41700000    2.653    2.107    2.513
125    38     1      -0.83400000    1.790    2.061    3.320
126    38     1      0.41700000    1.751    2.146    3.341
127    38     1      0.41700000    1.722    1.998    3.339
128    39     1      -0.83400000    1.521    1.854    2.724
129    39     1      0.41700000    1.492    1.911    2.795
130    39     1      0.41700000    1.595    1.806    2.760
131    40     1      -0.83400000    1.539    2.248    1.845
132    40     1      0.41700000    1.531    2.342    1.859
133    40     1      0.41700000    1.504    2.234    1.757
134    41     1      -0.83400000    2.676    2.454    2.911
135    41     1      0.41700000    2.602    2.505    2.946
136    41     1      0.41700000    2.636    2.372    2.881
137    42     1      -0.83400000    2.319    2.121    2.751
138    42     1      0.41700000    2.320    2.077    2.666
139    42     1      0.41700000    2.409    2.153    2.762
140    43     1      -0.83400000    1.904    2.109    2.647
141    43     1      0.41700000    1.870    2.157    2.723
142    43     1      0.41700000    1.828    2.064    2.611
143    44     1      -0.83400000    2.326    2.221    2.050
144    44     1      0.41700000    2.338    2.217    2.145
145    44     1      0.41700000    2.287    2.308    2.035
146    45     1      -0.83400000    2.722    1.999    2.852
147    45     1      0.41700000    2.724    2.044    2.937
148    45     1      0.41700000    2.697    1.909    2.873
149    46     1      -0.83400000    2.227    2.452    1.990
150    46     1      0.41700000    2.170    2.407    1.928
151    46     1      0.41700000    2.298    2.488    1.937
152    47     1      -0.83400000    2.349    2.527    2.926
153    47     1      0.41700000    2.386    2.480    3.001
154    47     1      0.41700000    2.330    2.615    2.960
155    48     1      -0.83400000    2.128    2.431    3.158
156    48     1      0.41700000    2.098    2.519    3.180
157    48     1      0.41700000    2.224    2.437    3.161
158    49     1      -0.83400000    1.981    2.852    2.218
159    49     1      0.41700000    1.904    2.798    2.202
160    49     1      0.41700000    2.054    2.800    2.184
161    50     1      -0.83400000    2.603    1.891    2.211
162    50     1      0.41700000    2.522    1.841    2.204
163    50     1      0.41700000    2.584    1.975    2.169
164    51     1      -0.83400000    1.986    2.819    2.581
165    51     1      0.41700000    2.037    2.738    2.576
166    51     1      0.41700000    1.940    2.812    2.666
167    52     1      -0.83400000    2.474    2.945    2.109
168    52     1      0.41700000    2.508    3.020    2.059
169    52     1      0.41700000    2.391    2.977    2.145
170    53     1      -0.83400000    1.734    2.515    3.273
171    53     1      0.41700000    1.698    2.582    3.331
172    53     1      0.41700000    1.705    2.432    3.310
173    54     1      -0.83400000    2.588    3.041    3.361
174    54     1      0.41700000    2.590    2.948    3.339
175    54     1      0.41700000    2.518    3.049    3.424
176    55     1      -0.83400000    2.763    2.878    2.645
177    55     1      0.41700000    2.798    2.818    2.579
178    55     1      0.41700000    2.674    2.845    2.662
179    56     1      -0.83400000    2.371    2.953    2.386
180    56     1      0.41700000    2.440    3.008    2.424
181    56     1      0.41700000    2.292    3.008    2.389
182    57     1      -0.83400000    1.585    2.515    1.935
183    57     1      0.41700000    1.672    2.543    1.963
184    57     1      0.41700000    1.536    2.597    1.923
185    58     1      -0.83400000    2.301    2.654    2.347
186    58     1      0.41700000    2.347    2.735    2.370
187    58     1      0.41700000    2.266    2.622    2.430
188    59     1      -0.83400000    2.659    3.005    2.942
189    59     1      0.41700000    2.723    2.935    2.953
190    59     1      0.41700000    2.712    3.083    2.924
191    60     1      -0.83400000    1.591    1.864    3.340
192    60     1      0.41700000    1.520    1.884    3.401
193    60     1      0.41700000    1.633    1.787    3.377
194    61     1      -0.83400000    1.784    2.697    2.148
195    61     1      0.41700000    1.723    2.771    2.149
196    61     1      0.41700000    1.831    2.706    2.065
197    62     1      -0.83400000    2.741    2.113    3.115
198    62     1      0.41700000    2.778    2.031    3.148
199    62     1      0.41700000    2.655    2.119    3.157
200    63     1      -0.83400000    2.274    2.237    2.338
201    63     1      0.41700000    2.204    2.284    2.382
202    63     1      0.41700000    2.303    2.171    2.401
203    64     1      -0.83400000    2.437    2.379    3.138
204    64     1      0.41700000    2.487    2.426    3.204
205    64     1      0.41700000    2.451    2.286    3.158
206    65     1      -0.83400000    2.678    1.909    2.482
207    65     1      0.41700000    2.665    1.911    2.387
208    65     1      0.41700000    2.772    1.914    2.494
209    66     1      -0.83400000    2.095    2.068    2.075
210    66     1      0.41700000    2.180    2.111    2.069
211    66     1      0.41700000    2.058    2.099    2.158
212    67     1      -0.83400000    1.985    2.693    1.923
213    67     1      0.41700000    2.061    2.682    1.979
214    67     1      0.41700000    1.992    2.623    1.857
215    68     1      -0.83400000    1.854    2.436    1.991
216    68     1      0.41700000    1.862    2.342    2.002
217    68     1      0.41700000    1.943    2.469    2.002
218    69     1      -0.83400000    2.297    2.891    1.870
219    69     1      0.41700000    2.287    2.829    1.943
220    69     1      0.41700000    2.280    2.838    1.792
221    70     1      -0.83400000    2.621    2.797    1.930
222    70     1      0.41700000    2.566    2.842    1.995
223    70     1      0.41700000    2.683    2.746    1.983
224    71     1      -0.83400000    2.188    2.693    2.120
225    71     1      0.41700000    2.230    2.676    2.204
226    71     1      0.41700000    2.200    2.612    2.071
227    72     1      -0.83400000    2.004    2.291    3.401
228    72     1      0.41700000    1.951    2.242    3.338
229    72     1      0.41700000    2.071    2.334    3.347
230    73     1      -0.83400000    2.439    2.595    1.845
231    73     1      0.41700000    2.491    2.524    1.808
232    73     1      0.41700000    2.504    2.659    1.875
233    74     1      -0.83400000    2.053    1.987    3.409
234    74     1      0.41700000    2.043    1.926    3.336
235    74     1      0.41700000    1.995    2.060    3.386
236    75     1      -0.83400000    2.329    1.843    3.112
237    75     1      0.41700000    2.285    1.845    3.028
238    75     1      0.41700000    2.266    1.803    3.172
239    76     1      -0.83400000    2.370    2.733    3.174
240    76     1      0.41700000    2.412    2.817    3.157
241    76     1      0.41700000    2.278    2.746    3.151
242    77     1      -0.83400000    2.604    2.506    3.313
243    77     1      0.41700000    2.616    2.446    3.387
244    77     1      0.41700000    2.690    2.509    3.271
245    78     1      -0.83400000    2.077    2.300    1.815
246    78     1      0.41700000    2.057    2.214    1.851
247    78     1      0.41700000    2.060    2.291    1.721
248    79     1      -0.83400000    1.957    2.010    1.813
249    79     1      0.41700000    1.987    2.011    1.723
250    79     1      0.41700000    2.031    1.975    1.863
251    80     1      -0.83400000    2.279    1.904    1.912
252    80     1      0.41700000    2.244    1.837    1.854
253    80     1      0.41700000    2.299    1.858    1.993
254    81     1      -0.83400000    1.860    2.940    1.897
255    81     1      0.41700000    1.903    2.995    1.962
256    81     1      0.41700000    1.908    2.858    1.898
257    82     1      -0.83400000    2.041    3.052    2.408
258    82     1      0.41700000    2.011    3.040    2.498
259    82     1      0.41700000    2.030    2.967    2.367
260    83     1      -0.83400000    1.613    2.557    2.552
261    83     1      0.41700000    1.548    2.530    2.487
262    83     1      0.41700000    1.697    2.546    2.507
263    84     1      -0.83400000    1.717    2.596    3.006
264    84     1      0.41700000    1.754    2.587    3.094
265    84     1      0.41700000    1.660    2.519    2.996
266    85     1      -0.83400000    1.789    2.184    1.937
267    85     1      0.41700000    1.860    2.142    1.888
268    85     1      0.41700000    1.717    2.191    1.874
269    86     1      -0.83400000    1.722    1.714    2.831
270    86     1      0.41700000    1.787    1.659    2.787
271    86     1      0.41700000    1.764    1.740    2.913
272    87     1      -0.83400000    1.698    1.730    3.105
273    87     1      0.41700000    1.663    1.776    3.182
274    87     1      0.41700000    1.665    1.641    3.114
275    88     1      -0.83400000    2.787    1.671    3.054
276    88     1      0.41700000    2.699    1.704    3.034
277    88     1      0.41700000    2.776    1.624    3.137
278    89     1      -0.83400000    1.805    3.078    3.129
279    89     1      0.41700000    1.733    3.016    3.122
280    89     1      0.41700000    1.811    3.118    3.042
281    90     1      -0.83400000    2.562    1.763    2.948
282    90     1      0.41700000    2.483    1.810    2.976
283    90     1      0.41700000    2.532    1.672    2.937
284    91     1      -0.83400000    2.350    2.005    2.499
285    91     1      0.41700000    2.269    1.967    2.465
286    91     1      0.41700000    2.401    1.929    2.529
287    92     1      -0.83400000    2.153    1.820    2.360
288    92     1      0.41700000    2.090    1.750    2.376
289    92     1      0.41700000    2.099    1.896    2.338
290    93     1      -0.83400000    2.716    2.491    0.697
291    93     1      0.41700000    2.708    2.399    0.670
292    93     1      0.41700000    2.675    2.541    0.627
293    94     1      -0.83400000    2.529    2.669    0.885
294    94     1      0.41700000    2.452    2.621    0.914
295    94     1      0.41700000    2.594    2.601    0.868
296    95     1      -0.83400000    1.931    2.700    0.973
297    95     1      0.41700000    1.848    2.674    1.013
298    95     1      0.41700000    1.992    2.707    1.047
299    96     1      -0.83400000    1.772    2.196    0.352
300    96     1      0.41700000    1.683    2.230    0.341
301    96     1      0.41700000    1.800    2.176    0.262
302    97     1      -0.83400000    1.568    2.456    0.940
303    97     1      0.41700000    1.625    2.379    0.940
304    97     1      0.41700000    1.568    2.486    0.849
305    98     1      -0.83400000    2.473    2.936    0.886
306    98     1      0.41700000    2.466    2.842    0.870
307    98     1      0.41700000    2.549    2.945    0.943
308    99     1      -0.83400000    1.692    1.997    1.119
309    99     1      0.41700000    1.674    1.907    1.147
310    99     1      0.41700000    1.652    2.052    1.186
311    100    1      -0.83400000    2.576    2.217    0.909
312    100    1      0.41700000    2.614    2.130    0.898
313    100    1      0.41700000    2.566    2.251    0.820
314    101    1      -0.83400000    1.989    2.054    0.455
315    101    1      0.41700000    2.000    2.144    0.486
316    101    1      0.41700000    1.898    2.049    0.426
317    102    1      -0.83400000    1.754    2.246    0.980
318    102    1      0.41700000    1.822    2.273    1.041
319    102    1      0.41700000    1.723    2.162    1.013
320    103    1      -0.83400000    2.173    2.351    0.888
321    103    1      0.41700000    2.224    2.401    0.952
322    103    1      0.41700000    2.226    2.273    0.871
323    104    1      -0.83400000    2.002    1.815    1.315
324    104    1      0.41700000    2.002    1.867    1.234
325    104    1      0.41700000    1.919    1.767    1.313
326    105    1      -0.83400000    2.640    2.826    0.465
327    105    1      0.41700000    2.579    2.873    0.408
328    105    1      0.41700000    2.692    2.896    0.507
329    106    1      -0.83400000    2.127    2.779    1.133
330    106    1      0.41700000    2.093    2.842    1.197
331    106    1      0.41700000    2.144    2.832    1.055
332    107    1      -0.83400000    1.970    1.986    1.116
333    107    1      0.41700000    2.004    2.071    1.086
334    107    1      0.41700000    1.876    2.001    1.127
335    108    1      -0.83400000    2.048    2.976    1.314
336    108    1      0.41700000    2.110    3.043    1.286
337    108    1      0.41700000    1.962    3.017    1.305
338    109    1      -0.83400000    2.338    1.735    0.748
339    109    1      0.41700000    2.369    1.680    0.676
340    109    1      0.41700000    2.245    1.748    0.730
341    110    1      -0.83400000    2.577    2.542    0.422
342    110    1      0.41700000    2.484    2.535    0.445
343    110    1      0.41700000    2.592    2.635    0.410
344    111    1      -0.83400000    2.138    2.594    0.700
345    111    1      0.41700000    2.097    2.523    0.650
346    111    1      0.41700000    2.146    2.560    0.789
347    112    1      -0.83400000    2.184    2.963    0.916
348    112    1      0.41700000    2.155    2.902    0.848
349    112    1      0.41700000    2.279    2.967    0.905
350    113    1      -0.83400000    2.009    2.272    1.078
351    113    1      0.41700000    2.064    2.283    1.000
352    113    1      0.41700000    2.060    2.309    1.149
353    114    1      -0.83400000    2.094    2.937    1.581
354    114    1      0.41700000    2.004    2.959    1.606
355    114    1      0.41700000    2.096    2.949    1.486
356    115    1      -0.83400000    1.976    2.624    1.439
357    115    1      0.41700000    1.962    2.711    1.476
358    115    1      0.41700000    1.888    2.590    1.424
359    116    1      -0.83400000    1.808    2.484    0.450
360    116    1      0.41700000    1.796    2.556    0.389
361    116    1      0.41700000    1.777    2.407    0.402
362    117    1      -0.83400000    1.571    2.801    1.031
363    117    1      0.41700000    1.579    2.814    0.936
364    117    1      0.41700000    1.633    2.730    1.050
365    118    1      -0.83400000    1.696    2.971    0.672
366    118    1      0.41700000    1.655    2.985    0.586
367    118    1      0.41700000    1.785    2.942    0.651
368    119    1      -0.83400000    1.577    2.905    1.285
369    119    1      0.41700000    1.593    2.858    1.203
370    119    1      0.41700000    1.624    2.854    1.351
371    120    1      -0.83400000    2.054    1.818    0.788
372    120    1      0.41700000    2.010    1.896    0.755
373    120    1      0.41700000    2.110    1.850    0.859
374    121    1      -0.83400000    2.483    2.105    1.349
375    121    1      0.41700000    2.437    2.125    1.430
376    121    1      0.41700000    2.443    2.023    1.318
377    122    1      -0.83400000    2.692    2.377    1.671
378    122    1      0.41700000    2.725    2.293    1.638
379    122    1      0.41700000    2.771    2.429    1.686
380    123    1      -0.83400000    2.366    1.780    0.276
381    123    1      0.41700000    2.303    1.780    0.349
382    123    1      0.41700000    2.357    1.693    0.237
383    124    1      -0.83400000    2.258    1.872    0.974
384    124    1      0.41700000    2.288    1.963    0.966
385    124    1      0.41700000    2.313    1.824    0.913
386    125    1      -0.83400000    2.033    2.330    0.561
387    125    1      0.41700000    2.011    2.309    0.651
388    125    1      0.41700000    1.955    2.374    0.526
389    126    1      -0.83400000    2.756    2.331    0.421
390    126    1      0.41700000    2.696    2.403    0.403
391    126    1      0.41700000    2.811    2.325    0.343
392    127    1      -0.83400000    2.277    2.420    1.628
393    127    1      0.41700000    2.268    2.326    1.613
394    127    1      0.41700000    2.362    2.442    1.588
395    128    1      -0.83400000    2.617    2.195    0.624
396    128    1      0.41700000    2.656    2.226    0.543
397    128    1      0.41700000    2.653    2.107    0.635
398    129    1      -0.83400000    1.790    2.061    1.443
399    129    1      0.41700000    1.751    2.146    1.464
400    129    1      0.41700000    1.722    1.998    1.462
401    130    1      -0.83400000    2.448    2.070    1.750
402    130    1      0.41700000    2.379    2.050    1.813
403    130    1      0.41700000    2.522    2.098    1.803
404    131    1      -0.83400000    1.521    1.854    0.846
405    131    1      0.41700000    1.492    1.911    0.917
406    131    1      0.41700000    1.595    1.806    0.883
407    132    1      -0.83400000    2.676    2.454    1.033
408    132    1      0.41700000    2.602    2.505    1.068
409    132    1      0.41700000    2.636    2.372    1.003
410    133    1      -0.83400000    2.319    2.121    0.874
411    133    1      0.41700000    2.320    2.077    0.789
412    133    1      0.41700000    2.409    2.153    0.885
413    134    1      -0.83400000    1.904    2.109    0.770
414    134    1      0.41700000    1.870    2.157    0.846
415    134    1      0.41700000    1.828    2.064    0.734
416    135    1      -0.83400000    2.722    1.999    0.975
417    135    1      0.41700000    2.724    2.044    1.059
418    135    1      0.41700000    2.697    1.909    0.996
419    136    1      -0.83400000    1.734    2.842    1.501
420    136    1      0.41700000    1.696    2.778    1.560
421    136    1      0.41700000    1.766    2.913    1.557
422    137    1      -0.83400000    2.349    2.527    1.049
423    137    1      0.41700000    2.386    2.480    1.123
424    137    1      0.41700000    2.330    2.615    1.083
425    138    1      -0.83400000    1.636    2.002    0.662
426    138    1      0.41700000    1.607    1.965    0.745
427    138    1      0.41700000    1.630    1.928    0.600
428    139    1      -0.83400000    2.128    2.431    1.280
429    139    1      0.41700000    2.098    2.519    1.303
430    139    1      0.41700000    2.224    2.437    1.284
431    140    1      -0.83400000    1.981    2.852    0.340
432    140    1      0.41700000    1.904    2.798    0.324
433    140    1      0.41700000    2.054    2.800    0.306
434    141    1      -0.83400000    2.603    1.891    0.334
435    141    1      0.41700000    2.522    1.841    0.326
436    141    1      0.41700000    2.584    1.975    0.292
437    142    1      -0.83400000    2.595    2.759    1.508
438    142    1      0.41700000    2.589    2.667    1.483
439    142    1      0.41700000    2.532    2.768    1.580
440    143    1      -0.83400000    1.986    2.819    0.704
441    143    1      0.41700000    2.037    2.738    0.698
442    143    1      0.41700000    1.940    2.812    0.788
443    144    1      -0.83400000    2.474    2.945    0.231
444    144    1      0.41700000    2.508    3.020    0.182
445    144    1      0.41700000    2.391    2.977    0.267
446    145    1      -0.83400000    1.734    2.515    1.395
447    145    1      0.41700000    1.698    2.582    1.454
448    145    1      0.41700000    1.705    2.432    1.432
449    146    1      -0.83400000    2.054    2.561    1.684
450    146    1      0.41700000    2.024    2.576    1.594
451    146    1      0.41700000    2.131    2.505    1.674
452    147    1      -0.83400000    2.588    3.041    1.483
453    147    1      0.41700000    2.590    2.948    1.461
454    147    1      0.41700000    2.518    3.049    1.547
455    148    1      -0.83400000    2.763    2.878    0.768
456    148    1      0.41700000    2.798    2.818    0.702
457    148    1      0.41700000    2.674    2.845    0.785
458    149    1      -0.83400000    2.371    2.953    0.508
459    149    1      0.41700000    2.440    3.008    0.546
460    149    1      0.41700000    2.292    3.008    0.512
461    150    1      -0.83400000    2.301    2.654    0.470
462    150    1      0.41700000    2.347    2.735    0.492
463    150    1      0.41700000    2.266    2.622    0.553
464    151    1      -0.83400000    1.892    1.688    0.517
465    151    1      0.41700000    1.879    1.688    0.612
466    151    1      0.41700000    1.809    1.722    0.482
467    152    1      -0.83400000    2.659    3.005    1.064
468    152    1      0.41700000    2.723    2.935    1.076
469    152    1      0.41700000    2.712    3.083    1.046
470    153    1      -0.83400000    1.784    2.697    0.270
471    153    1      0.41700000    1.723    2.771    0.271
472    153    1      0.41700000    1.831    2.706    0.188
473    154    1      -0.83400000    2.741    2.113    1.238
474    154    1      0.41700000    2.778    2.031    1.271
475    154    1      0.41700000    2.655    2.119    1.279
476    155    1      -0.83400000    2.274    2.237    0.460
477    155    1      0.41700000    2.204    2.284    0.505
478    155    1      0.41700000    2.303    2.171    0.524
479    156    1      -0.83400000    2.437    2.379    1.260
480    156    1      0.41700000    2.487    2.426    1.327
481    156    1      0.41700000    2.451    2.286    1.281
482    157    1      -0.83400000    2.678    1.909    0.604
483    157    1      0.41700000    2.665    1.911    0.509
484    157    1      0.41700000    2.772    1.914    0.616
485    158    1      -0.83400000    2.095    2.068    0.198
486    158    1      0.41700000    2.180    2.111    0.191
487    158    1      0.41700000    2.058    2.099    0.281
488    159    1      -0.83400000    2.718    2.981    1.738
489    159    1      0.41700000    2.658    2.983    1.663
490    159    1      0.41700000    2.688    2.907    1.791
491    160    1      -0.83400000    1.607    2.618    1.637
492    160    1      0.41700000    1.657    2.561    1.694
493    160    1      0.41700000    1.533    2.647    1.691
494    161    1      -0.83400000    2.312    2.759    1.590
495    161    1      0.41700000    2.236    2.816    1.582
496    161    1      0.41700000    2.330    2.730    1.501
497    162    1      -0.83400000    1.810    2.433    1.727
498    162    1      0.41700000    1.814    2.403    1.817
499    162    1      0.41700000    1.895    2.473    1.711
500    163    1      -0.83400000    2.188    2.693    0.243
501    163    1      0.41700000    2.230    2.676    0.327