LAMMPS (15 May 2015)
units real
atom_style bond

dimension 3
boundary p p p

pair_style lj/cut 15.0
pair_modify mix geometric

bond_style hybrid harmonic morse
special_bonds lj 0.0 0.0 0.5 coul 0.0 0.0 0.5

read_data atom_style-bond-data.lmp
  orthogonal box = (26.16 28.47 26.03) to (56.2661 58.5761 56.1361)
  1 by 1 by 1 MPI processor grid
  reading atoms ...
  9 atoms
  reading velocities ...
  9 velocities
  scanning bonds ...
  4 = max bonds/atom
  reading bonds ...
  8 bonds
  4 = max # of 1-2 neighbors
  4 = max # of 1-3 neighbors
  7 = max # of 1-4 neighbors
  8 = max # of special neighbors

thermo_style custom ebond eangle edihed eimp epair evdwl ecoul elong etail pe

run 0
WARNING: No fixes defined, atoms won't move (../verlet.cpp:55)
Neighbor list info ...
  1 neighbor list requests
  update every 1 steps, delay 10 steps, check yes
  master list distance cutoff = 17
Memory usage per processor = 3.70092 Mbytes
E_bond E_angle E_dihed E_impro E_pair E_vdwl E_coul E_long E_tail PotEng 
   47.912249            0            0            0 -0.086278353 -0.086278353            0            0            0    47.825971 
Loop time of 9.53674e-07 on 1 procs for 0 steps with 9 atoms

Pair  time (%) = 0 (0)
Bond  time (%) = 0 (0)
Neigh time (%) = 0 (0)
Comm  time (%) = 0 (0)
Outpt time (%) = 0 (0)
Other time (%) = 9.53674e-07 (100)

Nlocal:    9 ave 9 max 9 min
Histogram: 1 0 0 0 0 0 0 0 0 0
Nghost:    63 ave 63 max 63 min
Histogram: 1 0 0 0 0 0 0 0 0 0
Neighs:    15 ave 15 max 15 min
Histogram: 1 0 0 0 0 0 0 0 0 0

Total # of neighbors = 15
Ave neighs/atom = 1.66667
Ave special neighs/atom = 7.33333
Neighbor list builds = 0
Dangerous builds = 0
