bmim

25 atoms
25 bonds
45 angles
33 dihedrals
0 impropers

10 atom types
13 bond types
22 angle types
17 dihedral types

 61.413000 144.230400 xlo xhi
 80.744000 166.747900 ylo yhi
214.411000 644.502400 zlo zhi

Masses

1  14.0067
2  12.0107
3  12.0107
4  12.0107
5  12.0107
6  12.0107
7  12.0107
8   1.0079
9   1.0079
10   1.0079

Pair Coeffs

1   0.1700   3.2500
2   0.0660   3.5000
3   0.0700   3.5500
4   0.0660   3.5000
5   0.0660   3.5000
6   0.0660   3.5000
7   0.0700   3.5500
8   0.0300   1.7200
9   0.0300   1.9200
10   0.0300   2.5000

Bond Coeffs

1       477.05540000         1.31500000
2       427.10330000         1.37800000
3       339.98570000         1.09000000
4       267.92540000         1.52900000
5       339.98570000         1.08000000
6       339.98570000         1.09000000
7       336.99810000         1.46600000
8       339.98570000         1.09000000
9       339.98570000         1.09000000
10       520.07650000         1.34100000
11       267.92540000         1.52900000
12       339.98570000         1.08000000
13       267.92540000         1.52900000

Angle Coeffs

1        37.50000000       110.70000000
2        32.99470000       107.80000000
3        37.50000000       110.70000000
4        32.99470000       107.80000000
5        32.99470000       107.80000000
6        37.50000000       110.70000000
7        37.50000000       110.70000000
8        35.00240000       122.00000000
9        37.50000000       110.70000000
10        37.50000000       110.70000000
11        70.00480000       108.00000000
12        35.00240000       125.10000000
13        37.50000000       110.70000000
14        70.00480000       126.40000000
15        58.35330000       112.70000000
16        70.00480000       125.60000000
17        70.00480000       107.10000000
18        58.35330000       112.70000000
19        58.35330000       112.70000000
20        70.00480000       109.80000000
21        32.99470000       107.80000000
22        35.00240000       130.90000000

Dihedral Coeffs

1         0.00000000         4.65110000         0.00000000         0.00000000
2         0.00000000         4.65110000         0.00000000         0.00000000
3         0.00000000         2.19890000         0.00000000         0.00000000
4         0.00000000         2.99950000         0.00000000         0.00000000
5        -1.78770000         0.75630000        -0.28740000         0.00000000
6         0.00000000        10.75050000         0.00000000         0.00000000
7         0.00000000         2.99950000         0.00000000         0.00000000
8        -1.70970000         1.45950000         0.18970000         0.00000000
9         0.00000000         0.00000000         0.12400000         0.00000000
10         0.00000000         4.65110000         0.00000000         0.00000000
11         0.00000000         4.65110000         0.00000000         0.00000000
12         0.00000000         2.19890000         0.00000000         0.00000000
13         0.00000000         2.99950000         0.00000000         0.00000000
14         0.00000000         2.00050000         0.00000000         0.00000000
15         0.00000000        10.75050000         0.00000000         0.00000000
16         0.00000000         2.99950000         0.00000000         0.00000000
17        -1.25930000         0.00000000         0.00000000         0.00000000

Atoms

     1      1      1 0.15000000   64.087   83.490  216.463
     2      1      2 -0.17000000   64.749   84.436  215.549
     3      1      3 -0.11000000   63.617   83.904  217.613
     4      1      4 0.01000000   66.227   84.317  215.455
     5      1      5 -0.12000000   66.967   85.261  216.443
     6      1      6 -0.18000000   68.426   85.533  216.084
     7      1      1 0.15000000   63.084   82.938  218.295
     8      1      7 -0.13000000   63.397   81.739  217.597
     9      1      7 -0.13000000   64.171   82.109  216.517
    10      1      2 -0.17000000   62.470   83.037  219.614
    11      1      8 0.21000000   63.576   84.911  218.015
    12      1      8 0.21000000   63.198   80.744  218.022
    13      1      8 0.21000000   64.636   81.413  215.816
    14      1      9 0.13000000   62.309   83.980  220.148
    15      1      9 0.13000000   62.965   82.366  220.395
    16      1      9 0.13000000   61.413   82.703  219.580
    17      1      9 0.13000000   64.386   84.313  214.563
    18      1      9 0.13000000   64.406   85.490  215.836
    19      1     10 0.06000000   66.510   83.262  215.592
    20      1     10 0.06000000   66.480   84.700  214.411
    21      1     10 0.06000000   66.565   86.240  216.486
    22      1     10 0.06000000   66.880   84.992  217.474
    23      1     10 0.06000000   69.023   84.672  216.134
    24      1     10 0.06000000   68.566   85.879  215.078
    25      1     10 0.06000000   68.852   86.117  216.910

Velocities

     1   0.0000   0.0000   0.0000
     2   0.0000   0.0000   0.0000
     3   0.0000   0.0000   0.0000
     4   0.0000   0.0000   0.0000
     5   0.0000   0.0000   0.0000
     6   0.0000   0.0000   0.0000
     7   0.0000   0.0000   0.0000
     8   0.0000   0.0000   0.0000
     9   0.0000   0.0000   0.0000
    10   0.0000   0.0000   0.0000
    11   0.0000   0.0000   0.0000
    12   0.0000   0.0000   0.0000
    13   0.0000   0.0000   0.0000
    14   0.0000   0.0000   0.0000
    15   0.0000   0.0000   0.0000
    16   0.0000   0.0000   0.0000
    17   0.0000   0.0000   0.0000
    18   0.0000   0.0000   0.0000
    19   0.0000   0.0000   0.0000
    20   0.0000   0.0000   0.0000
    21   0.0000   0.0000   0.0000
    22   0.0000   0.0000   0.0000
    23   0.0000   0.0000   0.0000
    24   0.0000   0.0000   0.0000
    25   0.0000   0.0000   0.0000

Bonds

     1      1      7      3
     2      1      1      3
     3      2      9      1
     4      3      2     18
     5      4      5      6
     6      5      3     11
     7      3     10     15
     8      6      6     24
     9      7      1      2
    10      8      4     19
    11      6      6     25
    12      7      7     10
    13      9      5     22
    14     10      8      9
    15     11      4      5
    16      6      6     23
    17      9      5     21
    18      2      8      7
    19      8      4     20
    20      3      2     17
    21     12      9     13
    22     12      8     12
    23      3     10     16
    24      3     10     14
    25     13      2      4

Angles

     1      1      4      5     22
     2      2     17      2     18
     3      3      5      4     20
     4      4     24      6     25
     5      5     19      4     20
     6      6      4      2     18
     7      2     15     10     16
     8      7      2      4     19
     9      8      7      8     12
    10      7      2      4     20
    11      9      1      2     17
    12     10      5      6     23
    13     11      8      7      3
    14     12      1      3     11
    15      9      1      2     18
    16     13      6      5     22
    17     12      7      3     11
    18     14      3      1      2
    19     11      9      1      3
    20     10      5      6     25
    21      2     14     10     16
    22     15      2      4      5
    23     16      9      1      2
    24      3      5      4     19
    25     17      7      8      9
    26     13      6      5     21
    27     18      1      2      4
    28      2     14     10     15
    29     19      4      5      6
    30     10      5      6     24
    31      4     23      6     24
    32     17      1      9      8
    33     20      1      3      7
    34     21     21      5     22
    35      1      4      5     21
    36     16      8      7     10
    37      4     23      6     25
    38      9      7     10     14
    39      9      7     10     16
    40      9      7     10     15
    41     22      8      9     13
    42      8      1      9     13
    43     14      3      7     10
    44     22      9      8     12
    45      6      4      2     17

Dihedrals

     1      1     10      7      3     11
     2      2      9      1      3     11
     3      3      7      9      8     12
     4      4      3      7      8     12
     5      5      1      2      4      5
     6      2      8      7      3     11
     7      3      7      8      9     13
     8      6     13      9      8     12
     9      7      2      1      9     13
    10      1      2      1      3     11
    11      3      1      9      8     12
    12      8      9      1      2      4
    13      9      9      1      2     18
    14     10      9      1      3      7
    15     11      2      1      3      7
    16     12      1      7      3     11
    17     13      3      1      9      8
    18     14      3      9      1      2
    19     15      1      9      8      7
    20      9      8      7     10     14
    21     11     10      7      3      1
    22     16     10      7      8      9
    23     16      2      1      9      8
    24     13      3      7      8      9
    25     14      3      8      7     10
    26      9      8      7     10     15
    27      7     10      7      8     12
    28      4      3      1      9     13
    29      9      9      1      2     17
    30      9      8      7     10     16
    31     17      3      1      2      4
    32      3      1      8      9     13
    33     10      8      7      3      1
