LAMMPS (6 Dec 2012)
units real
atom_style full

dimension 3
boundary p p p

pair_style lj/cut/coul/cut 10.0 10.0
pair_modify mix geometric

bond_style harmonic
angle_style harmonic
dihedral_style opls
special_bonds lj 0.0 0.0 0.5 coul 0.0 0.0 0.5

read_data data.lmp
  3 = max bonds/atom
  6 = max angles/atom
  12 = max dihedrals/atom
  orthogonal box = (61.413 80.744 214.411) to (144.23 166.748 644.502)
  1 by 1 by 1 MPI processor grid
  25 atoms
  25 velocities
  25 bonds
  45 angles
  33 dihedrals
  4 = max # of 1-2 neighbors
  7 = max # of 1-3 neighbors
  14 = max # of 1-4 neighbors
  16 = max # of special neighbors

thermo_style custom ebond eangle edihed eimp epair evdwl ecoul elong etail pe

run 0
WARNING: No fixes defined, atoms won't move (verlet.cpp:54)
Memory usage per processor = 7.46894 Mbytes
E_bond E_angle E_dihed E_impro E_pair E_vdwl E_coul E_long E_tail PotEng 
   7.1985075    12.472607    1.1307927            0     34.61956   -1.1717565    35.791317            0            0    55.421468 
Loop time of 9.53674e-07 on 1 procs for 0 steps with 25 atoms

Pair  time (%) = 0 (0)
Bond  time (%) = 0 (0)
Neigh time (%) = 0 (0)
Comm  time (%) = 0 (0)
Outpt time (%) = 0 (0)
Other time (%) = 9.53674e-07 (100)

Nlocal:    25 ave 25 max 25 min
Histogram: 1 0 0 0 0 0 0 0 0 0
Nghost:    175 ave 175 max 175 min
Histogram: 1 0 0 0 0 0 0 0 0 0
Neighs:    230 ave 230 max 230 min
Histogram: 1 0 0 0 0 0 0 0 0 0

Total # of neighbors = 230
Ave neighs/atom = 9.2
Ave special neighs/atom = 9.92
Neighbor list builds = 0
Dangerous builds = 0
