tf2n

15 atoms
14 bonds
25 angles
24 dihedrals

5 atom types
4 bond types
7 angle types
4 dihedral types

-2.4702   80.3472 xlo xhi
-2.4331   83.5708 ylo yhi
0.0000   430.0914 zlo zhi

Masses

1 14.0067
2 32.065
3 12.0107
4 15.9994
5 18.9984032

Pair Coeffs

1   0.1700   3.2500
2   0.2500   3.5500
3   0.0660   3.5000
4   0.2100   3.1800
5   0.0530   3.1700

Bond Coeffs

1 441.8021   1.3230
2 235.4207   1.8180
3 637.0698   1.4420
4 372.0124   1.5700

Angle Coeffs

1  93.3317 107.1000
2  82.9350 111.8000
3 103.9675 102.6000
4 115.7983 118.5000
5  94.2878 113.6000
6  97.5143 100.2000
7  80.1864 125.6000

Dihedral Coeffs

1   0.0000   0.0000   0.3468   0.0000
2   0.0000   0.0000  -0.0036   0.0000
3   0.0000   0.0000   0.3160   0.0000
4   7.8329  -2.4904  -0.7636   0.0000

Atoms

1      1      1      -0.660   -5.099   81.823  147.277
2      1      2      1.020   -4.704   82.781  146.068
3      1      2      1.020   -5.257   81.999  148.812
4      1      3      0.350   -6.401   83.238  145.554
5      1      3      0.350   -3.984   80.731  149.218
6      1      4      -0.530   -4.109   84.017  146.474
7      1      4      -0.530   -4.174   82.185  144.828
8      1      4      -0.530   -6.556   81.627  149.369
9      1      4      -0.530   -4.536   83.116  149.419
10     1      5      -0.160   -6.333   84.132  144.552
11     1      5      -0.160   -7.122   82.120  145.233
12     1      5      -0.160   -7.132   83.764  146.469
13     1      5      -0.160   -2.774   80.929  148.599
14     1      5      -0.160   -4.448   79.568  148.871
15     1      5      -0.160   -3.775   80.614  150.519

Bonds

1 1 4 10
2 1 4 11
3 1 4 12
4 1 5 13
5 1 5 14
6 1 5 15
7 2 2 4
8 2 3 5
9 3 2 6
10 3 2 7
11 3 3 8
12 3 3 9
13 4 1 2
14 4 1 3

Angles

1 7 2 1 3
2 6 4 2 1
3 6 5 3 1
4 5 6 2 1
5 5 7 2 1
6 5 9 3 1
7 5 8 3 1
8 4 6 2 7
9 4 8 3 9
10 3 4 2 6
11 3 4 2 7
12 3 5 3 8
13 3 5 3 9
14 2 2 4 10
15 2 2 4 11
16 2 2 4 12
17 2 3 5 13
18 2 3 5 14
19 2 3 5 15
20 1 10 4 11
21 1 10 4 12
22 1 11 4 12
23 1 14 5 13
24 1 14 5 15
25 1 13 5 15

Dihedrals

1 3 10 4 2 1
2 3 11 4 2 1
3 3 12 4 2 1
4 3 13 5 3 1
5 3 14 5 3 1
6 3 15 5 3 1
7 2 2 1 3 8
8 2 2 1 3 9
9 2 3 1 2 6
10 2 3 1 2 7
11 4 2 1 3 5
12 4 3 1 2 4
13 1 10 4 2 6
14 1 10 4 2 7
15 1 11 4 2 6
16 1 11 4 2 7
17 1 12 4 2 6
18 1 12 4 2 7
19 1 13 5 3 8
20 1 13 5 3 9
21 1 14 5 3 8
22 1 14 5 3 9
23 1 15 5 3 8
24 1 15 5 3 9
