LAMMPS (6 Dec 2012)
units real
atom_style full

dimension 3
boundary p p p

pair_style lj/cut/coul/cut 10.0 10.0
pair_modify mix geometric
#kspace_style pppm 1.0e-8

bond_style harmonic
angle_style harmonic
dihedral_style opls
special_bonds lj/coul 0.0 0.0 0.5

read_data data.lmp
  3 = max bonds/atom
  6 = max angles/atom
  9 = max dihedrals/atom
  orthogonal box = (-2.4702 -2.4331 0) to (80.3472 83.5708 430.091)
  1 by 1 by 1 MPI processor grid
  15 atoms
  14 bonds
  25 angles
  24 dihedrals
  4 = max # of 1-2 neighbors
  6 = max # of 1-3 neighbors
  12 = max # of 1-4 neighbors
  14 = max # of special neighbors

thermo_style custom ebond eangle edihed eimp epair evdwl ecoul elong etail pe

run 0
WARNING: No fixes defined, atoms won't move (verlet.cpp:54)
Memory usage per processor = 6.81105 Mbytes
E_bond E_angle E_dihed E_impro E_pair E_vdwl E_coul E_long E_tail PotEng 
   4.8738765    12.357897  0.011015307            0    48.019955   0.83934439    47.180611            0            0    65.262744 
Loop time of 9.53674e-07 on 1 procs for 0 steps with 15 atoms

Pair  time (%) = 0 (0)
Bond  time (%) = 0 (0)
Neigh time (%) = 0 (0)
Comm  time (%) = 0 (0)
Outpt time (%) = 0 (0)
Other time (%) = 9.53674e-07 (100)

Nlocal:    15 ave 15 max 15 min
Histogram: 1 0 0 0 0 0 0 0 0 0
Nghost:    45 ave 45 max 45 min
Histogram: 1 0 0 0 0 0 0 0 0 0
Neighs:    66 ave 66 max 66 min
Histogram: 1 0 0 0 0 0 0 0 0 0

Total # of neighbors = 66
Ave neighs/atom = 4.4
Ave special neighs/atom = 8.4
Neighbor list builds = 0
Dangerous builds = 0
