LAMMPS (6 Dec 2012)
units real
atom_style full

dimension 3
boundary p p p

pair_style lj/cut/coul/long 9.0 10.0
pair_modify mix geometric
kspace_style pppm 1.0e-4

bond_style harmonic
angle_style harmonic
special_bonds lj/coul 0.0 0.0 0.5

read_data data.lmp
  3 = max bonds/atom
  6 = max angles/atom
  orthogonal box = (40 60 200) to (80 100 240)
  1 by 1 by 1 MPI processor grid
  25 atoms
  25 bonds
  45 angles
  4 = max # of 1-2 neighbors
  7 = max # of 1-3 neighbors
  14 = max # of 1-4 neighbors
  16 = max # of special neighbors

thermo_style custom ebond eangle edihed eimp epair evdwl ecoul pe

run 0
WARNING: No fixes defined, atoms won't move (verlet.cpp:54)
PPPM initialization ...
WARNING: System is not charge neutral, net charge = 1 (pppm.cpp:256)
  G vector (1/distance) = 0.11217
  grid = 4 4 4
  stencil order = 5
  estimated absolute RMS force accuracy = 0.0292037
  estimated relative force accuracy = 8.79461e-05
  using double precision FFTs
  3d grid and FFT values/proc = 729 64
Memory usage per processor = 5.33718 Mbytes
E_bond E_angle E_dihed E_impro E_pair E_vdwl E_coul PotEng 
   7.1985075    12.472607            0            0    22.246414    -1.171732    25.558261    41.917529 
Loop time of 1.19209e-06 on 1 procs for 0 steps with 25 atoms

Pair  time (%) = 0 (0)
Bond  time (%) = 0 (0)
Kspce time (%) = 0 (0)
Neigh time (%) = 0 (0)
Comm  time (%) = 0 (0)
Outpt time (%) = 0 (0)
Other time (%) = 1.19209e-06 (100)

FFT time (% of Kspce) = 0 (0)
FFT Gflps 3d (1d only) = 0 0

Nlocal:    25 ave 25 max 25 min
Histogram: 1 0 0 0 0 0 0 0 0 0
Nghost:    4 ave 4 max 4 min
Histogram: 1 0 0 0 0 0 0 0 0 0
Neighs:    300 ave 300 max 300 min
Histogram: 1 0 0 0 0 0 0 0 0 0

Total # of neighbors = 300
Ave neighs/atom = 12
Ave special neighs/atom = 9.92
Neighbor list builds = 0
Dangerous builds = 0
