system2_GMX

2227 atoms
18 bonds
27 angles
36 dihedrals
0 impropers

8 atom types
5 bond types
7 angle types
9 dihedral types

  1.600000  31.388300 xlo xhi
  1.460000  31.248300 ylo yhi
  1.640000  31.428300 zlo zhi

Masses

1  12.0100
2  12.0100
3  14.0100
4   1.0080
5   1.0080
6  35.4530
7  16.0000
8   1.0080

Pair Coeffs

1   0.0860   3.3997
2   0.0860   3.3997
3   0.1700   3.2500
4   0.0150   2.5996
5   0.0157   1.0691
6   0.1000   4.4010
7   0.1520   3.1507
8   0.0000   0.0000

Bond Coeffs

1     4.78405832e+02     1.38700000e+00
2     3.44299713e+02     1.08700000e+00
3     4.01195029e+02     1.01400000e+00
4     3.66001434e+02     1.47200000e+00
5     4.84703633e+02     1.34100000e+00

Angle Coeffs

1     4.85002390e+01     1.20010000e+02
2     5.01003824e+01     1.14730000e+02
3     6.48996176e+01     1.20660000e+02
4     4.01003824e+01     1.14430000e+02
5     6.72000478e+01     1.19970000e+02
6     6.77294455e+01     1.17690000e+02
7     7.29003346e+01     1.17500000e+02

Dihedral Coeffs

1    -0.00000000e+00     1.35000000e+00    -0.00000000e+00    -0.00000000e+00
2    -0.00000000e+00     1.33000000e+01    -0.00000000e+00    -0.00000000e+00
3    -0.00000000e+00     7.25000000e+00    -0.00000000e+00    -0.00000000e+00
4    -0.00000000e+00     7.25000000e+00    -0.00000000e+00    -0.00000000e+00
5    -0.00000000e+00     7.25000000e+00    -0.00000000e+00    -0.00000000e+00
6    -0.00000000e+00     1.35000000e+00    -0.00000000e+00    -0.00000000e+00
7    -0.00000000e+00     7.25000000e+00    -0.00000000e+00    -0.00000000e+00
8    -0.00000000e+00     7.25000000e+00    -0.00000000e+00    -0.00000000e+00
9    -0.00000000e+00     7.25000000e+00    -0.00000000e+00    -0.00000000e+00

Atoms

1      1      1      -0.04840000   16.260   18.080   21.930
2      1      1      -0.12040000   16.560   16.720   21.800
3      1      1      -0.11960000   15.630   18.760   20.880
4      1      1      -0.07280000   16.240   16.050   20.620
5      1      1      -0.07250000   15.310   18.080   19.710
6      1      1      -0.16820000   15.610   16.730   19.570
7      1      2      0.52970000   15.280   16.030   18.350
8      1      3      -0.81870000   14.680   16.680   17.340
9      1      3      -0.81910000   15.570   14.720   18.210
10     1      4      0.17000000   16.510   18.600   22.850
11     1      4      0.17100000   17.040   16.190   22.610
12     1      4      0.17180000   15.400   19.810   20.990
13     1      4      0.14090000   16.470   14.990   20.530
14     1      4      0.14030000   14.830   18.620   18.890
15     1      5      0.48580000   14.450   17.660   17.420
16     1      5      0.47250000   14.440   16.200   16.480
17     1      5      0.48500000   16.020   14.210   18.960
18     1      5      0.47270000   15.350   14.220   17.360
19     2      6      -1.00000000   14.060   13.840   14.100
20     3      7      -0.83400000   27.160   24.910   25.750
21     3      8      0.41700000   27.080   23.990   25.480
22     3      8      0.41700000   26.750   25.410   25.040
23     4      7      -0.83400000   25.290   26.690   27.630
24     4      8      0.41700000   24.520   26.210   27.920
25     4      8      0.41700000   25.940   26.010   27.450
26     5      7      -0.83400000   19.310   27.000   28.510
27     5      8      0.41700000   18.480   26.740   28.910
28     5      8      0.41700000   19.920   27.070   29.240
29     6      7      -0.83400000   17.720   21.960   22.290
30     6      8      0.41700000   16.830   22.300   22.190
31     6      8      0.41700000   18.000   21.760   21.400
32     7      7      -0.83400000   15.680   24.560   28.180
33     7      8      0.41700000   16.250   23.790   28.180
34     7      8      0.41700000   15.680   24.860   27.270
35     8      7      -0.83400000   24.730   29.360   27.640
36     8      8      0.41700000   24.660   28.420   27.480
37     8      8      0.41700000   25.490   29.450   28.210
38     9      7      -0.83400000   16.920   19.970   29.960
39     9      8      0.41700000   16.740   19.070   30.240
40     9      8      0.41700000   16.520   20.520   30.640
41     10     7      -0.83400000   25.760   22.170   27.860
42     10     8      0.41700000   26.140   21.300   27.750
43     10     8      0.41700000   25.660   22.510   26.970
44     11     7      -0.83400000   19.890   20.540   23.320
45     11     8      0.41700000   20.000   21.440   23.630
46     11     8      0.41700000   18.980   20.490   23.030
47     12     7      -0.83400000   17.540   22.460   28.570
48     12     8      0.41700000   18.220   22.730   29.190
49     12     8      0.41700000   17.230   21.620   28.900
50     13     7      -0.83400000   21.730   23.510   27.660
51     13     8      0.41700000   22.240   24.010   28.300
52     13     8      0.41700000   22.260   22.730   27.480
53     14     7      -0.83400000   20.020   18.150   31.920
54     14     8      0.41700000   20.020   18.670   31.120
55     14     8      0.41700000   19.190   17.670   31.900
56     15     7      -0.83400000   26.400   28.260   23.420
57     15     8      0.41700000   25.790   28.730   22.860
58     15     8      0.41700000   26.920   28.960   23.840
59     16     7      -0.83400000   21.270   27.790   30.100
60     16     8      0.41700000   20.930   28.420   30.740
61     16     8      0.41700000   21.440   28.320   29.320
62     17     7      -0.83400000   19.700   19.860   29.930
63     17     8      0.41700000   20.040   20.710   29.640
64     17     8      0.41700000   18.760   20.010   30.050
65     18     7      -0.83400000   20.480   29.760   31.920
66     18     8      0.41700000   21.100   30.430   31.630
67     18     8      0.41700000   19.620   30.170   31.820
68     19     7      -0.83400000   15.770   28.950   20.800
69     19     8      0.41700000   15.400   29.440   20.070
70     19     8      0.41700000   16.030   29.620   21.430
71     20     7      -0.83400000   23.380   17.350   26.260
72     20     8      0.41700000   23.690   16.800   25.540
73     20     8      0.41700000   22.450   17.480   26.070
74     21     7      -0.83400000   25.770   25.420   22.990
75     21     8      0.41700000   24.840   25.350   23.220
76     21     8      0.41700000   25.920   26.350   22.880
77     22     7      -0.83400000   25.760   21.690   19.990
78     22     8      0.41700000   24.820   21.850   20.070
79     22     8      0.41700000   26.070   22.410   19.440
80     23     7      -0.83400000   21.380   25.940   25.770
81     23     8      0.41700000   20.970   25.230   25.280
82     23     8      0.41700000   21.460   25.600   26.660
83     24     7      -0.83400000   21.840   29.630   27.940
84     24     8      0.41700000   21.550   29.020   27.260
85     24     8      0.41700000   22.790   29.670   27.830
86     25     7      -0.83400000   20.090   22.720   29.550
87     25     8      0.41700000   20.640   22.830   28.780
88     25     8      0.41700000   20.600   23.090   30.270
89     26     7      -0.83400000   19.760   26.240   33.160
90     26     8      0.41700000   19.620   27.110   33.530
91     26     8      0.41700000   18.880   25.900   33.020
92     27     7      -0.83400000   18.080   24.840   23.270
93     27     8      0.41700000   17.960   25.560   22.660
94     27     8      0.41700000   17.770   24.070   22.800
95     28     7      -0.83400000   15.710   28.010   29.080
96     28     8      0.41700000   15.790   28.140   28.140
97     28     8      0.41700000   16.330   27.300   29.270
98     29     7      -0.83400000   16.960   29.710   25.490
99     29     8      0.41700000   16.550   29.850   24.640
100    29     8      0.41700000   17.850   29.420   25.290
101    30     7      -0.83400000   15.770   29.050   31.620
102    30     8      0.41700000   15.930   28.580   30.800
103    30     8      0.41700000   16.240   28.540   32.290
104    31     7      -0.83400000   20.540   18.180   26.660
105    31     8      0.41700000   20.100   18.960   26.320
106    31     8      0.41700000   21.100   18.500   27.360
107    32     7      -0.83400000   24.830   21.050   32.260
108    32     8      0.41700000   24.370   21.250   33.070
109    32     8      0.41700000   24.430   20.230   31.960
110    33     7      -0.83400000   23.660   17.800   21.540
111    33     8      0.41700000   23.030   17.800   22.260
112    33     8      0.41700000   23.570   16.930   21.140
113    34     7      -0.83400000   22.580   18.720   28.520
114    34     8      0.41700000   22.880   19.630   28.430
115    34     8      0.41700000   23.130   18.240   27.900
116    35     7      -0.83400000   20.330   23.300   24.380
117    35     8      0.41700000   20.110   23.090   25.290
118    35     8      0.41700000   19.550   23.740   24.040
119    36     7      -0.83400000   27.560   23.310   22.980
120    36     8      0.41700000   26.960   24.030   22.800
121    36     8      0.41700000   28.110   23.250   22.200
122    37     7      -0.83400000   26.170   21.950   25.010
123    37     8      0.41700000   26.560   22.260   24.200
124    37     8      0.41700000   26.530   21.070   25.130
125    38     7      -0.83400000   17.900   20.610   33.200
126    38     8      0.41700000   17.510   21.460   33.410
127    38     8      0.41700000   17.220   19.980   33.390
128    39     7      -0.83400000   15.210   18.540   27.240
129    39     8      0.41700000   14.920   19.110   27.950
130    39     8      0.41700000   15.950   18.060   27.600
131    40     7      -0.83400000   15.390   22.480   18.450
132    40     8      0.41700000   15.310   23.420   18.590
133    40     8      0.41700000   15.040   22.340   17.570
134    41     7      -0.83400000   26.760   24.540   29.110
135    41     8      0.41700000   26.020   25.050   29.460
136    41     8      0.41700000   26.360   23.720   28.810
137    42     7      -0.83400000   23.190   21.210   27.510
138    42     8      0.41700000   23.200   20.770   26.660
139    42     8      0.41700000   24.090   21.530   27.620
140    43     7      -0.83400000   19.040   21.090   26.470
141    43     8      0.41700000   18.700   21.570   27.230
142    43     8      0.41700000   18.280   20.640   26.110
143    44     7      -0.83400000   23.260   22.210   20.500
144    44     8      0.41700000   23.380   22.170   21.450
145    44     8      0.41700000   22.870   23.080   20.350
146    45     7      -0.83400000   27.220   19.990   28.520
147    45     8      0.41700000   27.240   20.440   29.370
148    45     8      0.41700000   26.970   19.090   28.730
149    46     7      -0.83400000   22.270   24.520   19.900
150    46     8      0.41700000   21.700   24.070   19.280
151    46     8      0.41700000   22.980   24.880   19.370
152    47     7      -0.83400000   23.490   25.270   29.260
153    47     8      0.41700000   23.860   24.800   30.010
154    47     8      0.41700000   23.300   26.150   29.600
155    48     7      -0.83400000   21.280   24.310   31.580
156    48     8      0.41700000   20.980   25.190   31.800
157    48     8      0.41700000   22.240   24.370   31.610
158    49     7      -0.83400000   19.810   28.520   22.180
159    49     8      0.41700000   19.040   27.980   22.020
160    49     8      0.41700000   20.540   28.000   21.840
161    50     7      -0.83400000   26.030   18.910   22.110
162    50     8      0.41700000   25.220   18.410   22.040
163    50     8      0.41700000   25.840   19.750   21.690
164    51     7      -0.83400000   19.860   28.190   25.810
165    51     8      0.41700000   20.370   27.380   25.760
166    51     8      0.41700000   19.400   28.120   26.660
167    52     7      -0.83400000   24.740   29.450   21.090
168    52     8      0.41700000   25.080   30.200   20.590
169    52     8      0.41700000   23.910   29.770   21.450
170    53     7      -0.83400000   17.340   25.150   32.730
171    53     8      0.41700000   16.980   25.820   33.310
172    53     8      0.41700000   17.050   24.320   33.100
173    54     7      -0.83400000   25.880   30.410   33.610
174    54     8      0.41700000   25.900   29.480   33.390
175    54     8      0.41700000   25.180   30.490   34.240
176    55     7      -0.83400000   27.630   28.780   26.450
177    55     8      0.41700000   27.980   28.180   25.790
178    55     8      0.41700000   26.740   28.450   26.620
179    56     7      -0.83400000   23.710   29.530   23.860
180    56     8      0.41700000   24.400   30.080   24.240
181    56     8      0.41700000   22.920   30.080   23.890
182    57     7      -0.83400000   15.850   25.150   19.350
183    57     8      0.41700000   16.720   25.430   19.630
184    57     8      0.41700000   15.360   25.970   19.230
185    58     7      -0.83400000   23.010   26.540   23.470
186    58     8      0.41700000   23.470   27.350   23.700
187    58     8      0.41700000   22.660   26.220   24.300
188    59     7      -0.83400000   26.590   30.050   29.420
189    59     8      0.41700000   27.230   29.350   29.530
190    59     8      0.41700000   27.120   30.830   29.240
191    60     7      -0.83400000   15.910   18.640   33.400
192    60     8      0.41700000   15.200   18.840   34.010
193    60     8      0.41700000   16.330   17.870   33.770
194    61     7      -0.83400000   17.840   26.970   21.480
195    61     8      0.41700000   17.230   27.710   21.490
196    61     8      0.41700000   18.310   27.060   20.650
197    62     7      -0.83400000   27.410   21.130   31.150
198    62     8      0.41700000   27.780   20.310   31.480
199    62     8      0.41700000   26.550   21.190   31.570
200    63     7      -0.83400000   22.740   22.370   23.380
201    63     8      0.41700000   22.040   22.840   23.820
202    63     8      0.41700000   23.030   21.710   24.010
203    64     7      -0.83400000   24.370   23.790   31.380
204    64     8      0.41700000   24.870   24.260   32.040
205    64     8      0.41700000   24.510   22.860   31.580
206    65     7      -0.83400000   26.780   19.090   24.820
207    65     8      0.41700000   26.650   19.110   23.870
208    65     8      0.41700000   27.720   19.140   24.940
209    66     7      -0.83400000   20.950   20.680   20.750
210    66     8      0.41700000   21.800   21.110   20.690
211    66     8      0.41700000   20.580   20.990   21.580
212    67     7      -0.83400000   19.850   26.930   19.230
213    67     8      0.41700000   20.610   26.820   19.790
214    67     8      0.41700000   19.920   26.230   18.570
215    68     7      -0.83400000   18.540   24.360   19.910
216    68     8      0.41700000   18.620   23.420   20.020
217    68     8      0.41700000   19.430   24.690   20.020
218    69     7      -0.83400000   22.970   28.910   18.700
219    69     8      0.41700000   22.870   28.290   19.430
220    69     8      0.41700000   22.800   28.380   17.920
221    70     7      -0.83400000   26.210   27.970   19.300
222    70     8      0.41700000   25.660   28.420   19.950
223    70     8      0.41700000   26.830   27.460   19.830
224    71     7      -0.83400000   21.880   26.930   21.200
225    71     8      0.41700000   22.300   26.760   22.040
226    71     8      0.41700000   22.000   26.120   20.710
227    72     7      -0.83400000   20.040   22.910   34.010
228    72     8      0.41700000   19.510   22.420   33.380
229    72     8      0.41700000   20.710   23.340   33.470
230    73     7      -0.83400000   24.390   25.950   18.450
231    73     8      0.41700000   24.910   25.240   18.080
232    73     8      0.41700000   25.040   26.590   18.750
233    74     7      -0.83400000   20.530   19.870   34.090
234    74     8      0.41700000   20.430   19.260   33.360
235    74     8      0.41700000   19.950   20.600   33.860
236    75     7      -0.83400000   23.290   18.430   31.120
237    75     8      0.41700000   22.850   18.450   30.280
238    75     8      0.41700000   22.660   18.030   31.720
239    76     7      -0.83400000   23.700   27.330   31.740
240    76     8      0.41700000   24.120   28.170   31.570
241    76     8      0.41700000   22.780   27.460   31.510
242    77     7      -0.83400000   26.040   25.060   33.130
243    77     8      0.41700000   26.160   24.460   33.870
244    77     8      0.41700000   26.900   25.090   32.710
245    78     7      -0.83400000   20.770   23.000   18.150
246    78     8      0.41700000   20.570   22.140   18.510
247    78     8      0.41700000   20.600   22.910   17.210
248    79     7      -0.83400000   19.570   20.100   18.130
249    79     8      0.41700000   19.870   20.110   17.230
250    79     8      0.41700000   20.310   19.750   18.630
251    80     7      -0.83400000   22.790   19.040   19.120
252    80     8      0.41700000   22.440   18.370   18.540
253    80     8      0.41700000   22.990   18.580   19.930
254    81     7      -0.83400000   18.600   29.400   18.970
255    81     8      0.41700000   19.030   29.950   19.620
256    81     8      0.41700000   19.080   28.580   18.980
257    82     7      -0.83400000   20.410   30.520   24.080
258    82     8      0.41700000   20.110   30.400   24.980
259    82     8      0.41700000   20.300   29.670   23.670
260    83     7      -0.83400000   16.130   25.570   25.520
261    83     8      0.41700000   15.480   25.300   24.870
262    83     8      0.41700000   16.970   25.460   25.070
263    84     7      -0.83400000   17.170   25.960   30.060
264    84     8      0.41700000   17.540   25.870   30.940
265    84     8      0.41700000   16.600   25.190   29.960
266    85     7      -0.83400000   17.890   21.840   19.370
267    85     8      0.41700000   18.600   21.420   18.880
268    85     8      0.41700000   17.170   21.910   18.740
269    86     7      -0.83400000   17.220   17.140   28.310
270    86     8      0.41700000   17.870   16.590   27.870
271    86     8      0.41700000   17.640   17.400   29.130
272    87     7      -0.83400000   16.980   17.300   31.050
273    87     8      0.41700000   16.630   17.760   31.820
274    87     8      0.41700000   16.650   16.410   31.140
275    88     7      -0.83400000   27.870   16.710   30.540
276    88     8      0.41700000   26.990   17.040   30.340
277    88     8      0.41700000   27.760   16.240   31.370
278    89     7      -0.83400000   18.050   30.780   31.290
279    89     8      0.41700000   17.330   30.160   31.220
280    89     8      0.41700000   18.110   31.180   30.420
281    90     7      -0.83400000   25.620   17.630   29.480
282    90     8      0.41700000   24.830   18.100   29.760
283    90     8      0.41700000   25.320   16.720   29.370
284    91     7      -0.83400000   23.500   20.050   24.990
285    91     8      0.41700000   22.690   19.670   24.650
286    91     8      0.41700000   24.010   19.290   25.290
287    92     7      -0.83400000   21.530   18.200   23.600
288    92     8      0.41700000   20.900   17.500   23.760
289    92     8      0.41700000   20.990   18.960   23.380
290    93     7      -0.83400000   27.160   24.910    6.970
291    93     8      0.41700000   27.080   23.990    6.700
292    93     8      0.41700000   26.750   25.410    6.270
293    94     7      -0.83400000   25.290   26.690    8.850
294    94     8      0.41700000   24.520   26.210    9.140
295    94     8      0.41700000   25.940   26.010    8.680
296    95     7      -0.83400000   19.310   27.000    9.730
297    95     8      0.41700000   18.480   26.740   10.130
298    95     8      0.41700000   19.920   27.070   10.470
299    96     7      -0.83400000   17.720   21.960    3.520
300    96     8      0.41700000   16.830   22.300    3.410
301    96     8      0.41700000   18.000   21.760    2.620
302    97     7      -0.83400000   15.680   24.560    9.400
303    97     8      0.41700000   16.250   23.790    9.400
304    97     8      0.41700000   15.680   24.860    8.490
305    98     7      -0.83400000   24.730   29.360    8.860
306    98     8      0.41700000   24.660   28.420    8.700
307    98     8      0.41700000   25.490   29.450    9.430
308    99     7      -0.83400000   16.920   19.970   11.190
309    99     8      0.41700000   16.740   19.070   11.470
310    99     8      0.41700000   16.520   20.520   11.860
311    100    7      -0.83400000   25.760   22.170    9.090
312    100    8      0.41700000   26.140   21.300    8.980
313    100    8      0.41700000   25.660   22.510    8.200
314    101    7      -0.83400000   19.890   20.540    4.550
315    101    8      0.41700000   20.000   21.440    4.860
316    101    8      0.41700000   18.980   20.490    4.260
317    102    7      -0.83400000   17.540   22.460    9.800
318    102    8      0.41700000   18.220   22.730   10.410
319    102    8      0.41700000   17.230   21.620   10.130
320    103    7      -0.83400000   21.730   23.510    8.880
321    103    8      0.41700000   22.240   24.010    9.520
322    103    8      0.41700000   22.260   22.730    8.710
323    104    7      -0.83400000   20.020   18.150   13.150
324    104    8      0.41700000   20.020   18.670   12.340
325    104    8      0.41700000   19.190   17.670   13.130
326    105    7      -0.83400000   26.400   28.260    4.650
327    105    8      0.41700000   25.790   28.730    4.080
328    105    8      0.41700000   26.920   28.960    5.070
329    106    7      -0.83400000   21.270   27.790   11.330
330    106    8      0.41700000   20.930   28.420   11.970
331    106    8      0.41700000   21.440   28.320   10.550
332    107    7      -0.83400000   19.700   19.860   11.160
333    107    8      0.41700000   20.040   20.710   10.860
334    107    8      0.41700000   18.760   20.010   11.270
335    108    7      -0.83400000   20.480   29.760   13.140
336    108    8      0.41700000   21.100   30.430   12.860
337    108    8      0.41700000   19.620   30.170   13.050
338    109    7      -0.83400000   23.380   17.350    7.480
339    109    8      0.41700000   23.690   16.800    6.760
340    109    8      0.41700000   22.450   17.480    7.300
341    110    7      -0.83400000   25.770   25.420    4.220
342    110    8      0.41700000   24.840   25.350    4.450
343    110    8      0.41700000   25.920   26.350    4.100
344    111    7      -0.83400000   21.380   25.940    7.000
345    111    8      0.41700000   20.970   25.230    6.500
346    111    8      0.41700000   21.460   25.600    7.890
347    112    7      -0.83400000   21.840   29.630    9.160
348    112    8      0.41700000   21.550   29.020    8.480
349    112    8      0.41700000   22.790   29.670    9.050
350    113    7      -0.83400000   20.090   22.720   10.780
351    113    8      0.41700000   20.640   22.830   10.000
352    113    8      0.41700000   20.600   23.090   11.490
353    114    7      -0.83400000   20.940   29.370   15.810
354    114    8      0.41700000   20.040   29.590   16.060
355    114    8      0.41700000   20.960   29.490   14.860
356    115    7      -0.83400000   19.760   26.240   14.390
357    115    8      0.41700000   19.620   27.110   14.760
358    115    8      0.41700000   18.880   25.900   14.240
359    116    7      -0.83400000   18.080   24.840    4.500
360    116    8      0.41700000   17.960   25.560    3.890
361    116    8      0.41700000   17.770   24.070    4.020
362    117    7      -0.83400000   15.710   28.010   10.310
363    117    8      0.41700000   15.790   28.140    9.360
364    117    8      0.41700000   16.330   27.300   10.500
365    118    7      -0.83400000   16.960   29.710    6.720
366    118    8      0.41700000   16.550   29.850    5.860
367    118    8      0.41700000   17.850   29.420    6.510
368    119    7      -0.83400000   15.770   29.050   12.850
369    119    8      0.41700000   15.930   28.580   12.030
370    119    8      0.41700000   16.240   28.540   13.510
371    120    7      -0.83400000   20.540   18.180    7.880
372    120    8      0.41700000   20.100   18.960    7.550
373    120    8      0.41700000   21.100   18.500    8.590
374    121    7      -0.83400000   24.830   21.050   13.490
375    121    8      0.41700000   24.370   21.250   14.300
376    121    8      0.41700000   24.430   20.230   13.180
377    122    7      -0.83400000   26.920   23.770   16.710
378    122    8      0.41700000   27.250   22.930   16.380
379    122    8      0.41700000   27.710   24.290   16.860
380    123    7      -0.83400000   23.660   17.800    2.760
381    123    8      0.41700000   23.030   17.800    3.490
382    123    8      0.41700000   23.570   16.930    2.370
383    124    7      -0.83400000   22.580   18.720    9.740
384    124    8      0.41700000   22.880   19.630    9.660
385    124    8      0.41700000   23.130   18.240    9.130
386    125    7      -0.83400000   20.330   23.300    5.610
387    125    8      0.41700000   20.110   23.090    6.510
388    125    8      0.41700000   19.550   23.740    5.260
389    126    7      -0.83400000   27.560   23.310    4.210
390    126    8      0.41700000   26.960   24.030    4.030
391    126    8      0.41700000   28.110   23.250    3.430
392    127    7      -0.83400000   22.770   24.200   16.280
393    127    8      0.41700000   22.680   23.260   16.130
394    127    8      0.41700000   23.620   24.420   15.880
395    128    7      -0.83400000   26.170   21.950    6.240
396    128    8      0.41700000   26.560   22.260    5.430
397    128    8      0.41700000   26.530   21.070    6.350
398    129    7      -0.83400000   17.900   20.610   14.430
399    129    8      0.41700000   17.510   21.460   14.640
400    129    8      0.41700000   17.220   19.980   14.620
401    130    7      -0.83400000   24.480   20.700   17.500
402    130    8      0.41700000   23.790   20.500   18.130
403    130    8      0.41700000   25.220   20.980   18.030
404    131    7      -0.83400000   15.210   18.540    8.460
405    131    8      0.41700000   14.920   19.110    9.170
406    131    8      0.41700000   15.950   18.060    8.830
407    132    7      -0.83400000   26.760   24.540   10.330
408    132    8      0.41700000   26.020   25.050   10.680
409    132    8      0.41700000   26.360   23.720   10.030
410    133    7      -0.83400000   23.190   21.210    8.740
411    133    8      0.41700000   23.200   20.770    7.890
412    133    8      0.41700000   24.090   21.530    8.850
413    134    7      -0.83400000   19.040   21.090    7.700
414    134    8      0.41700000   18.700   21.570    8.460
415    134    8      0.41700000   18.280   20.640    7.340
416    135    7      -0.83400000   27.220   19.990    9.750
417    135    8      0.41700000   27.240   20.440   10.590
418    135    8      0.41700000   26.970   19.090    9.960
419    136    7      -0.83400000   17.340   28.420   15.010
420    136    8      0.41700000   16.960   27.780   15.600
421    136    8      0.41700000   17.660   29.130   15.570
422    137    7      -0.83400000   23.490   25.270   10.490
423    137    8      0.41700000   23.860   24.800   11.230
424    137    8      0.41700000   23.300   26.150   10.830
425    138    7      -0.83400000   16.360   20.020    6.620
426    138    8      0.41700000   16.070   19.650    7.450
427    138    8      0.41700000   16.300   19.280    6.000
428    139    7      -0.83400000   21.280   24.310   12.800
429    139    8      0.41700000   20.980   25.190   13.030
430    139    8      0.41700000   22.240   24.370   12.840
431    140    7      -0.83400000   19.810   28.520    3.400
432    140    8      0.41700000   19.040   27.980    3.240
433    140    8      0.41700000   20.540   28.000    3.060
434    141    7      -0.83400000   26.030   18.910    3.340
435    141    8      0.41700000   25.220   18.410    3.260
436    141    8      0.41700000   25.840   19.750    2.920
437    142    7      -0.83400000   25.950   27.590   15.080
438    142    8      0.41700000   25.890   26.670   14.830
439    142    8      0.41700000   25.320   27.680   15.800
440    143    7      -0.83400000   19.860   28.190    7.040
441    143    8      0.41700000   20.370   27.380    6.980
442    143    8      0.41700000   19.400   28.120    7.880
443    144    7      -0.83400000   24.740   29.450    2.310
444    144    8      0.41700000   25.080   30.200    1.820
445    144    8      0.41700000   23.910   29.770    2.670
446    145    7      -0.83400000   17.340   25.150   13.950
447    145    8      0.41700000   16.980   25.820   14.540
448    145    8      0.41700000   17.050   24.320   14.320
449    146    7      -0.83400000   20.540   25.610   16.840
450    146    8      0.41700000   20.240   25.760   15.940
451    146    8      0.41700000   21.310   25.050   16.740
452    147    7      -0.83400000   25.880   30.410   14.830
453    147    8      0.41700000   25.900   29.480   14.610
454    147    8      0.41700000   25.180   30.490   15.470
455    148    7      -0.83400000   27.630   28.780    7.680
456    148    8      0.41700000   27.980   28.180    7.020
457    148    8      0.41700000   26.740   28.450    7.850
458    149    7      -0.83400000   23.710   29.530    5.080
459    149    8      0.41700000   24.400   30.080    5.460
460    149    8      0.41700000   22.920   30.080    5.120
461    150    7      -0.83400000   23.010   26.540    4.700
462    150    8      0.41700000   23.470   27.350    4.920
463    150    8      0.41700000   22.660   26.220    5.530
464    151    7      -0.83400000   18.920   16.880    5.170
465    151    8      0.41700000   18.790   16.880    6.120
466    151    8      0.41700000   18.090   17.220    4.820
467    152    7      -0.83400000   26.590   30.050   10.640
468    152    8      0.41700000   27.230   29.350   10.760
469    152    8      0.41700000   27.120   30.830   10.460
470    153    7      -0.83400000   17.840   26.970    2.700
471    153    8      0.41700000   17.230   27.710    2.710
472    153    8      0.41700000   18.310   27.060    1.880
473    154    7      -0.83400000   27.410   21.130   12.380
474    154    8      0.41700000   27.780   20.310   12.710
475    154    8      0.41700000   26.550   21.190   12.790
476    155    7      -0.83400000   22.740   22.370    4.600