LAMMPS (6 Dec 2012)
units real
atom_style full

dimension 3
boundary p p p

pair_style lj/cut/coul/long 9.0 10.0
pair_modify mix geometric
kspace_style pppm 1.0e-4

bond_style harmonic
angle_style harmonic
dihedral_style opls
special_bonds lj 0.0 0.0 0.5 coul 0.0 0.0 0.8333

read_data data.lmp
  3 = max bonds/atom
  3 = max angles/atom
  8 = max dihedrals/atom
  orthogonal box = (1.6 1.46 1.64) to (31.3883 31.2483 31.4283)
  1 by 1 by 1 MPI processor grid
  2227 atoms
  2227 velocities
  18 bonds
  27 angles
  36 dihedrals
  3 = max # of 1-2 neighbors
  6 = max # of 1-3 neighbors
  14 = max # of 1-4 neighbors
  16 = max # of special neighbors

thermo_style custom ebond eangle edihed eimp epair evdwl ecoul pe

run 0
WARNING: No fixes defined, atoms won't move (verlet.cpp:54)
PPPM initialization ...
  G vector (1/distance) = 0.261556
  grid = 15 15 15
  stencil order = 5
  estimated absolute RMS force accuracy = 0.031928
  estimated relative force accuracy = 9.61503e-05
  using double precision FFTs
  3d grid and FFT values/proc = 10648 3375
Memory usage per processor = 17.7536 Mbytes
E_bond E_angle E_dihed E_impro E_pair E_vdwl E_coul PotEng 
  0.63863449    3.1155297  0.012619488            0     20862850     21020859   -120345.48     20862854 
Loop time of 9.53674e-07 on 1 procs for 0 steps with 2227 atoms

Pair  time (%) = 0 (0)
Bond  time (%) = 0 (0)
Kspce time (%) = 0 (0)
Neigh time (%) = 0 (0)
Comm  time (%) = 0 (0)
Outpt time (%) = 0 (0)
Other time (%) = 9.53674e-07 (100)

FFT time (% of Kspce) = 0 (0)
FFT Gflps 3d (1d only) = 0 0

Nlocal:    2227 ave 2227 max 2227 min
Histogram: 1 0 0 0 0 0 0 0 0 0
Nghost:    10871 ave 10871 max 10871 min
Histogram: 1 0 0 0 0 0 0 0 0 0
Neighs:    690606 ave 690606 max 690606 min
Histogram: 1 0 0 0 0 0 0 0 0 0

Total # of neighbors = 690606
Ave neighs/atom = 310.106
Ave special neighs/atom = 0.0700494
Neighbor list builds = 0
Dangerous builds = 0
