LAMMPS (6 Dec 2012)
units real
atom_style full

dimension 3
boundary p p p

pair_style lj/cut/coul/long 10.0
pair_modify mix geometric
kspace_style pppm 1.0e-4

bond_style harmonic
angle_style harmonic

read_data data.lmp
  3 = max bonds/atom
  3 = max angles/atom
  orthogonal box = (1.6 1.46 1.64) to (31.3883 34.3216 37.4961)
  1 by 1 by 1 MPI processor grid
  2227 atoms
  2227 velocities
  18 bonds
  27 angles
  3 = max # of 1-2 neighbors
  6 = max # of 1-3 neighbors
  14 = max # of 1-4 neighbors
  16 = max # of special neighbors

thermo_style custom ebond eangle edihed eimp epair evdwl ecoul pe ke etotal temp

run 0
WARNING: No fixes defined, atoms won't move (verlet.cpp:54)
PPPM initialization ...
  G vector (1/distance) = 0.260254
  grid = 15 16 18
  stencil order = 5
  estimated absolute RMS force accuracy = 0.0296545
  estimated relative force accuracy = 8.93035e-05
  using double precision FFTs
  3d grid and FFT values/proc = 11550 4320
Memory usage per processor = 9.16551 Mbytes
E_bond E_angle E_dihed E_impro E_pair E_vdwl E_coul PotEng KinEng TotEng Temp 
   4005591.7    4104.4065            0            0   -155901.86 -0.00048776695   -118424.57    3853794.2            0    3853794.2            0 
Loop time of 9.53674e-07 on 1 procs for 0 steps with 2227 atoms

Pair  time (%) = 0 (0)
Bond  time (%) = 0 (0)
Kspce time (%) = 0 (0)
Neigh time (%) = 0 (0)
Comm  time (%) = 0 (0)
Outpt time (%) = 0 (0)
Other time (%) = 9.53674e-07 (100)

FFT time (% of Kspce) = 0 (0)
FFT Gflps 3d (1d only) = 0 0

Nlocal:    2227 ave 2227 max 2227 min
Histogram: 1 0 0 0 0 0 0 0 0 0
Nghost:    8827 ave 8827 max 8827 min
Histogram: 1 0 0 0 0 0 0 0 0 0
Neighs:    530846 ave 530846 max 530846 min
Histogram: 1 0 0 0 0 0 0 0 0 0

Total # of neighbors = 530846
Ave neighs/atom = 238.368
Ave special neighs/atom = 0.0700494
Neighbor list builds = 0
Dangerous builds = 0
