mica

22680 atoms
32400 bonds
84240 angles
0 dihedrals

17 atom types
14 bond types
33 angle types

-2.4702   80.3472 xlo xhi
-2.4331   83.5708 ylo yhi
-25.0000   25.000 zlo zhi

Masses

1 39.0983
2 28.086
3 28.086
4 26.9815
5 26.9815
6 26.9815
7 26.9815
8 15.9994
9 15.9994
10 15.9994
11 15.9994
12 15.9994
13 15.9994
14 15.9994
15 15.9994
16 15.9994
17 1.008

Pair Coeffs

1   0.2000   3.3854
2   0.0500   3.5636
3   0.0500   3.5636
4   0.0500   3.7418
5   0.0500   3.7418
6   0.0500   3.7418
7   0.0500   3.7418
8   0.0250   3.1181
9   0.0250   3.1181
10   0.0250   3.1181
11   0.0250   3.1181
12   0.0250   3.1181
13   0.0250   3.1181
14   0.0250   3.1181
15   0.0250   3.1181
16   0.0250   3.1181
17   0.0130   0.9783

Bond Coeffs

1 430.0000   2.0433
2 430.0000   2.0412
3 430.0000   2.0234
4 430.0000   2.0212
5 430.0000   2.0170
6 430.0000   2.0128
7 430.0000   1.7430
8 430.0000   1.7315
9 430.0000   1.7304
10 430.0000   1.7283
11 430.0000   1.7262
12 430.0000   1.7230
13 430.0000   1.7167
14 495.0000   0.9290

Angle Coeffs

1 170.0000 167.3000
2 170.0000 167.1000
3 170.0000 166.7000
4 170.0000 139.9000
5 170.0000 128.8000
6 170.0000 128.2000
7 170.0000 127.5000
8 170.0000 127.2000
9 170.0000 123.8000
10 170.0000 123.7000
11  11.5000 116.2000
12 170.0000 112.5000
13 170.0000 112.2000
14 170.0000 110.4000
15 170.0000 110.3000
16 170.0000 110.2000
17 170.0000 110.0000
18 170.0000 109.6000
19 170.0000 107.3000
20 170.0000 107.0000
21 170.0000 106.7000
22 170.0000 103.0000
23 170.0000 101.6000
24 170.0000  98.2000
25 170.0000  95.8000
26 170.0000  95.6000
27 170.0000  94.8000
28 170.0000  94.7000
29 170.0000  92.9000
30 170.0000  92.8000
31 170.0000  92.7000
32 170.0000  78.4000
33 170.0000  77.0000

Atoms

1      1      6      1.449   80.203   81.177    2.936
2      1      2      1.100   -1.748    3.191    5.760
3      1      3      1.100   -1.862   82.832    5.805
4      1      17     0.200   -2.095    0.496    4.078
5      1      8      -0.550   -2.025   81.246    6.457
6      1      9      -0.550   79.827    2.106    6.295
7      1      10     -0.550   79.702   -2.221    6.539
8      1      14     -0.758   -1.537    3.333    4.072
9      1      15     -0.758   -2.058   82.756    4.105
10     1      16     -0.683   -1.571   -0.262    3.962
11     1      7      1.448    0.174    3.091    2.913
12     1      2      1.100   -0.750   81.008    0.017
13     1      3      1.100   -0.718    1.473    0.071
14     1      17     0.200   -0.546   -2.315    1.727
15     1      8      -0.783   -0.432    3.064   -0.624
16     1      9      -0.550    0.572   82.082   -0.491
17     1      10     -0.550    0.507    0.430   -0.641
18     1      11     -0.758   -0.911   80.901    1.809
19     1      12     -0.758   -0.429    1.511    1.808
20     1      13     -0.683   -0.925   -1.474    1.900
21     1      6      1.449    0.166   -0.095    2.950
22     1      2      1.100    1.024   -1.540    5.797
23     1      3      1.100    0.970    1.576    5.753
24     1      17     0.200    1.187   80.697    4.882
25     1      8      -0.550    0.824    0.021    6.478
26     1      9      -0.550   -0.254   83.397    6.312
27     1      10     -0.550   -0.272    2.544    6.482
28     1      14     -0.758    1.215   -1.415    4.063
29     1      15     -0.758    0.769    1.503    4.035
30     1      16     -0.683    1.278   80.906    3.976
31     1      7      1.448   80.197   -1.650    2.911
32     1      2      1.100   79.273   -0.171    0.057
33     1      3      1.100   79.373   82.696    0.032
34     1      17     0.200   78.920    3.425    0.967
35     1      8      -0.550   79.552   -1.721   -0.667
36     1      9      -0.550   -2.357    1.039   -0.305
37     1      10     -0.550   -2.189   81.749   -0.705
38     1      11     -0.758   79.117   -0.337    1.788
39     1      12     -0.758   79.549   82.729    1.799
40     1      13     -0.683   79.150    3.314    1.855
41     1      6      1.449   80.220    4.681    2.898
42     1      2      1.100   -1.710   12.709    5.842
43     1      5      0.800   -1.877    6.311    5.796
44     1      17     0.200   -2.070   10.039    4.209
45     1      8      -0.783   -2.060    4.744    6.541
46     1      9      -0.783   79.742   11.736    6.435
47     1      10     -0.783   79.728    7.272    6.562
48     1      14     -0.758   -1.535   12.898    4.130
49     1      15     -0.758   -1.988    6.284    4.074
50     1      16     -0.683   -1.626    9.245    4.031
51     1      7      1.448    0.128   12.650    2.953
52     1      4      0.800   -0.654    4.605    0.065
53     1      3      1.100   -0.662   10.974    0.094
54     1      17     0.200   -0.643    7.195    1.897
55     1      8      -0.550   -0.444   12.532   -0.596
56     1      9      -0.783    0.627    5.586   -0.488
57     1      10     -0.783    0.580    9.954   -0.649
58     1      11     -0.758   -0.858    4.420    1.782
59     1      12     -0.758   -0.534   11.008    1.864
60     1      13     -0.683   -0.974    8.064    1.951
61     1      6      1.449    0.104    9.445    2.974
62     1      2      1.100    0.989    7.946    5.858
63     1      5      0.800    0.967   11.084    5.856
64     1      1      1.000   -1.713    9.378    7.783
65     1      17     0.200    0.772    5.125    4.423
66     1      8      -0.783    0.992    9.493    6.652
67     1      9      -0.783   -0.390    7.005    6.377
68     1      10     -0.783   -0.306   11.956    6.586
69     1      14     -0.758    1.112    8.105    4.115
70     1      15     -0.758    0.741   11.047    4.095
71     1      16     -0.683    1.248    4.449    3.997
72     1      7      1.448   80.151    7.863    2.984
73     1      4      0.800   79.265    9.371    0.142
74     1      3      1.100   79.401    6.207    0.109
75     1      17     0.200   79.631   11.957    2.047
76     1      8      -0.783   79.487    7.858   -0.640
77     1      9      -0.783   -2.225   10.399   -0.407
78     1      10     -0.783   -2.128    5.246   -0.629
79     1      11     -0.758   79.074    9.188    1.869
80     1      12     -0.758   79.548    6.275    1.833
81     1      13     -0.683   79.158   12.752    1.983
82     1      6      1.449   80.204   14.212    2.952
83     1      2      1.100   -1.700   22.259    5.828
84     1      3      1.100   -1.771   15.835    5.806
85     1      1      1.000   78.359   14.529    7.423
86     1      17     0.200   -1.875   19.658    3.934
87     1      8      -0.550   -1.838   14.255    6.554
88     1      9      -0.550   79.822   21.209    6.405
89     1      10     -0.783   79.750   16.802    6.556
90     1      14     -0.758   -1.564   22.395    4.103
91     1      15     -0.758   -2.016   15.828    4.109
92     1      16     -0.683   -1.610   18.773    4.035
93     1      7      1.448    0.093   22.148    2.949
94     1      2      1.100   -0.751   14.135    0.093
95     1      3      1.100   -0.598   20.445    0.147
96     1      17     0.200   -0.731   17.675    1.096
97     1      8      -0.550   -0.660   22.012   -0.617
98     1      9      -0.550    0.494   15.263   -0.415
99     1      10     -0.783    0.661   19.599   -0.629
100    1      11     -0.758   -0.931   13.963    1.815
101    1      12     -0.758   -0.454   20.493    1.841
102    1      13     -0.683   -0.929   17.589    2.000
103    1      6      1.449    0.138   18.953    2.999
104    1      2      1.100    1.071   17.547    5.793
105    1      5      0.800    0.999   20.673    5.820
106    1      1      1.000   -1.191   19.362    7.974
107    1      17     0.200    1.364   13.895    4.878
108    1      8      -0.783    0.891   19.107    6.548
109    1      9      -0.550   -0.219   16.445    6.295
110    1      10     -0.783   -0.281   21.510    6.549
111    1      14     -0.758    1.219   17.652    4.070
112    1      15     -0.758    0.779   20.598    4.139
113    1      16     -0.683    1.178   14.056    3.980
114    1      7      1.448   80.147   17.399    2.997
115    1      2      1.100   79.315   18.860    0.124
116    1      5      0.800   79.385   15.700    0.122
117    1      17     0.200   78.938   22.674    1.181
118    1      8      -0.783   79.407   17.279   -0.608
119    1      9      -0.550   -2.127   19.761   -0.434
120    1      10     -0.783   -2.226   14.748   -0.647
121    1      11     -0.758   79.103   18.718    1.839
122    1      12     -0.758   79.545   15.765    1.825
123    1      13     -0.683   79.240   22.348    2.002
124    1      6      1.449    2.948   81.130    2.875
125    1      4      0.800    3.858    3.149    5.834
126    1      3      1.100    3.703   82.830    5.758
127    1      17     0.200    3.300    0.495    3.671
128    1      8      -0.550    3.637   81.245    6.476
129    1      9      -0.783    2.572    2.083    6.307
130    1      10     -0.550    2.520   -2.140    6.462
131    1      14     -0.758    4.063    3.361    4.138
132    1      15     -0.758    3.564   82.754    4.026
133    1      16     -0.683    3.886   -0.205    3.854
134    1      7      1.448    5.729    3.083    2.993
135    1      2      1.100    4.820   80.983   -0.010
136    1      5      0.800    4.850    1.431    0.137
137    1      17     0.200    5.137   -1.686    1.161
138    1      8      -0.783    5.074    2.984   -0.589
139    1      9      -0.783    6.129   82.087   -0.437
140    1      10     -0.783    6.074    0.420   -0.603
141    1      11     -0.758    4.634   80.856    1.735
142    1      12     -0.758    5.089    1.506    1.822
143    1      13     -0.683    4.642   -1.456    1.913
144    1      6      1.449    5.693   -0.085    2.941
145    1      4      0.800    6.590   -1.588    5.836
146    1      3      1.100    6.535    1.570    5.827
147    1      1      1.000    4.037   -0.073    7.518
148    1      17     0.200    6.400   81.792    4.045
149    1      8      -0.783    6.478   -0.017    6.556
150    1      9      -0.783    5.237   83.482    6.380
151    1      10     -0.783    5.281    2.449    6.542
152    1      14     -0.758    6.742   -1.454    4.102
153    1      15     -0.758    6.355    1.490    4.096
154    1      16     -0.683    6.753   80.932    3.956
155    1      7      1.448    2.892   -1.665    2.900
156    1      2      1.100    2.005   -0.182    0.052
157    1      3      1.100    2.125   82.656    0.043
158    1      17     0.200    2.504    2.592    1.768
159    1      8      -0.550    2.293   -1.744   -0.625
160    1      9      -0.783    3.240    0.916   -0.378
161    1      10     -0.550    3.363   81.645   -0.674
162    1      11     -0.758    1.813   -0.391    1.755
163    1      12     -0.758    2.322   82.740    1.767
164    1      13     -0.683    1.930    3.292    1.981
165    1      6      1.449    2.967    4.675    2.988
166    1      2      1.100    3.791   12.825    5.799
167    1      3      1.100    3.716    6.282    5.870
168    1      1      1.000    0.147    4.778    8.193
169    1      17     0.200    3.936    9.391    4.972
170    1      8      -0.783    3.766    4.698    6.572
171    1      9      -0.783    2.470   11.800    6.318
172    1      10     -0.550    2.407    7.173    6.559
173    1      14     -0.758    3.972   12.930    4.063
174    1      15     -0.758    3.528    6.265    4.117
175    1      16     -0.683    3.898    9.267    4.042
176    1      7      1.448    5.686   12.636    2.927
177    1      2      1.100    4.800    4.557    0.157
178    1      3      1.100    4.857   10.946    0.114
179    1      17     0.200    5.171    7.441    2.240
180    1      8      -0.550    5.012   12.519   -0.601
181    1      9      -0.783    6.084    5.517   -0.358
182    1      10     -0.550    6.108    9.962   -0.610
183    1      11     -0.758    4.652    4.418    1.858
184    1      12     -0.758    5.000   11.050    1.835
185    1      13     -0.683    4.519    8.044    1.965
186    1      6      1.449    5.642    9.447    2.947
187    1      4      0.800    6.558    7.964    5.883
188    1      3      1.100    6.500   11.159    5.809
189    1      1      1.000    6.569   14.548    7.733
190    1      17     0.200    6.487    5.269    3.786
191    1      8      -0.783    6.476    9.554    6.564
192    1      9      -0.783    5.213    6.976    6.442
193    1      10     -0.550    5.230   12.160    6.509
194    1      14     -0.758    6.699    8.063    4.061
195    1      15     -0.758    6.342   11.068    4.056
196    1      16     -0.683    6.785    4.427    4.050
197    1      7      1.448    2.820    7.837    3.012
198    1      4      0.800    1.990    9.305    0.085
199    1      3      1.100    2.123    6.177    0.099
200    1      17     0.200    2.127   12.091    1.431
201    1      8      -0.783    2.270    7.779   -0.647
202    1      9      -0.783    3.284   10.369   -0.461
203    1      10     -0.550    3.372    5.220   -0.594
204    1      11     -0.758    1.768    9.152    1.841
205    1      12     -0.758    2.306    6.218    1.825
206    1      13     -0.683    1.860   12.837    1.917
207    1      6      1.449    2.911   14.262    2.913
208    1      2      1.100    3.866   22.367    5.789
209    1      3      1.100    3.757   15.916    5.756
210    1      17     0.200    3.594   19.584    4.187
211    1      8      -0.550    3.682   14.382    6.508
212    1      9      -0.783    2.560   21.299    6.309
213    1      10     -0.550    2.532   16.852    6.494
214    1      14     -0.758    3.945   22.494    4.063
215    1      15     -0.758    3.569   15.841    4.043
216    1      16     -0.683    3.992   18.760    4.019
217    1      7      1.448    5.652   22.238    2.918
218    1      2      1.100    4.811   14.101    0.032
219    1      3      1.100    4.830   20.549    0.080
220    1      17     0.200    4.328   17.846    1.019
221    1      8      -0.550    5.004   22.127   -0.695
222    1      9      -0.550    6.053   15.155   -0.446
223    1      10     -0.550    6.115   19.561   -0.636
224    1      11     -0.758    4.596   13.956    1.774
225    1      12     -0.758    5.037   20.614    1.819
226    1      13     -0.683    4.627   17.678    1.890
227    1      6      1.449    5.687   19.026    2.948
228    1      2      1.100    6.520   17.623    5.761
229    1      3      1.100    6.476   20.701    5.787
230    1      17     0.200    6.500   14.917    3.624
231    1      8      -0.550    6.262   19.181    6.459
232    1      9      -0.550    5.265   16.588    6.277
233    1      10     -0.550    5.317   21.755    6.482
234    1      14     -0.758    6.697   17.714    4.069
235    1      15     -0.758    6.250   20.675    4.061
236    1      16     -0.683    6.680   14.046    3.882
237    1      7      1.448    2.922   17.416    2.959
238    1      4      0.800    2.081   18.866    0.120
239    1      3      1.100    2.085   15.759    0.101
240    1      17     0.200    2.190   21.552    1.816
241    1      8      -0.783    2.300   17.345   -0.620
242    1      9      -0.783    3.354   19.870   -0.390
243    1      10     -0.550    3.323   14.692   -0.675
244    1      11     -0.758    1.879   18.741    1.861
245    1      12     -0.758    2.326   15.821    1.797
246    1      13     -0.683    1.806   22.397    1.921
247    1      6      1.449    8.510   81.114    2.952
248    1      2      1.100    9.361    3.201    5.844
249    1      3      1.100    9.266   82.780    5.837
250    1      17     0.200    9.530   -0.660    4.909
251    1      8      -0.550    9.091   81.145    6.569
252    1      9      -0.550    8.051    2.198    6.368
253    1      10     -0.783    8.010   -2.262    6.573
254    1      14     -0.758    9.519    3.314    4.160
255    1      15     -0.758    9.081   82.698    4.102
256    1      16     -0.683    9.543   -0.366    4.028
257    1      7      1.448   11.236    3.094    2.992
258    1      2      1.100   10.298   80.984    0.082
259    1      3      1.100   10.402    1.422    0.141
260    1      17     0.200   10.838   -2.189    2.227
261    1      8      -0.550   10.436    2.967   -0.546
262    1      9      -0.783   11.643   82.009   -0.434
263    1      10     -0.550   11.668    0.427   -0.593
264    1      11     -0.758   10.173   80.787    1.804
265    1      12     -0.758   10.617    1.483    1.883
266    1      13     -0.683   10.209   -1.547    1.963
267    1      6      1.449   11.250   -0.102    3.006
268    1      4      0.800   12.157   -1.579    5.867
269    1      3      1.100   12.058    1.547    5.877
270    1      1      1.000   12.670   -1.134    8.885
271    1      17     0.200   11.761   81.666    3.940
272    1      8      -0.783   11.947   -0.023    6.595
273    1      9      -0.783   10.862   83.343    6.310
274    1      10     -0.550   10.778    2.509    6.590
275    1      14     -0.758   12.329   -1.423    4.158
276    1      15     -0.758   11.880    1.542    4.124
277    1      16     -0.683   12.283   80.899    3.959
278    1      7      1.448    8.449   -1.749    3.019
279    1      2      1.100    7.553   -0.219    0.145
280    1      5      0.800    7.709   82.691    0.086
281    1      17     0.200    7.809    2.428    2.361
282    1      8      -0.783    7.799   -1.742   -0.582
283    1      9      -0.550    8.788    0.821   -0.418
284    1      10     -0.783    8.960   81.721   -0.672
285    1      11     -0.758    7.384   -0.413    1.843
286    1      12     -0.758    7.856   82.667    1.801
287    1      13     -0.683    7.455    3.218    2.026
288    1      6      1.449    8.489    4.622    3.028
289    1      2      1.100    9.329   12.821    5.809
290    1      3      1.100    9.268    6.393    5.857
291    1      1      1.000    6.402    4.844    7.031
292    1      17     0.200    9.131    9.568    4.741
293    1      8      -0.550    9.083    4.799    6.508
294    1      9      -0.550    8.047   11.789    6.335
295    1      10     -0.783    7.966    7.319    6.679
296    1      14     -0.758    9.454   12.941    4.100
297    1      15     -0.758    9.096    6.261    4.132
298    1      16     -0.683    9.456    9.290    3.912
299    1      7      1.448   11.161   12.645    2.964
300    1      2      1.100   10.321    4.541    0.178
301    1      3      1.100   10.376   10.948    0.105
302    1      17     0.200   10.556    7.342    1.436
303    1      8      -0.783   10.436   12.538   -0.691
304    1      9      -0.550   11.645    5.535   -0.336
305    1      10     -0.550   11.672   10.120   -0.620
306    1      11     -0.758   10.127    4.374    1.923
307    1      12     -0.758   10.594   11.034    1.838
308    1      13     -0.683   10.180    8.032    1.945
309    1      6      1.449   11.202    9.490    2.958
310    1      2      1.100   12.141    8.032    5.815
311    1      3      1.100   11.997   11.153    5.814
312    1      17     0.200   11.781    5.359    4.145
313    1      8      -0.550   11.962    9.577    6.571
314    1      9      -0.550   10.849    6.966    6.304
315    1      10     -0.550   10.770   12.099    6.533
316    1      14     -0.758   12.304    8.215    4.121
317    1      15     -0.758   11.832   11.106    4.084
318    1      16     -0.683   12.256    4.581    3.978
319    1      7      1.448    8.449    7.856    2.936
320    1      2      1.100    7.539    9.283    0.128
321    1      5      0.800    7.624    6.181    0.131
322    1      17     0.200    7.806   12.044    1.793
323    1      8      -0.783    7.707    7.703   -0.578
324    1      9      -0.550    8.848   10.261   -0.385
325    1      10     -0.783    8.850    5.234   -0.600
326    1      11     -0.758    7.346    9.168    1.800
327    1      12     -0.758    7.865    6.227    1.853
328    1      13     -0.683    7.355   12.850    1.856
329    1      6      1.449    8.441   14.238    2.933
330    1      2      1.100    9.296   22.363    5.749
331    1      5      0.800    9.194   15.944    5.852
332    1      17     0.200    9.117   19.702    3.844
333    1      8      -0.783    9.096   14.375    6.567
334    1      9      -0.550    8.088   21.216    6.209
335    1      10     -0.783    7.907   16.873    6.568
336    1      14     -0.758    9.468   22.454    4.047
337    1      15     -0.758    8.990   15.873    4.152
338    1      16     -0.683    9.417   18.828    3.954
339    1      7      1.448   11.182   22.172    2.929
340    1      4      0.800   10.319   14.101    0.050
341    1      3      1.100   10.378   20.540    0.058
342    1      17     0.200   10.854   17.114    1.908
343    1      8      -0.550   10.459   22.117   -0.688
344    1      9      -0.783   11.634   15.043   -0.483
345    1      10     -0.783   11.638   19.572   -0.655
346    1      11     -0.758   10.130   13.942    1.823
347    1      12     -0.758   10.575   20.602    1.748
348    1      13     -0.683   10.100   17.658    1.903
349    1      6      1.449   11.150   19.053    2.949
350    1      2      1.100   11.998   17.547    5.773
351    1      5      0.800   11.969   20.696    5.808
352    1      1      1.000    9.424   18.860    7.534
353    1      17     0.200   11.707   14.821    4.114
354    1      8      -0.783   11.783   19.093    6.486
355    1      9      -0.783   10.701   16.592    6.370
356    1      10     -0.783   10.752   21.741    6.477
357    1      14     -0.758   12.145   17.670    4.041
358    1      15     -0.758   11.784   20.638    4.087
359    1      16     -0.683   12.214   14.058    3.955
360    1      7      1.448    8.409   17.409    2.971
361    1      2      1.100    7.539   18.882    0.113
362    1      3      1.100    7.633   15.725    0.077
363    1      17     0.200    7.393   22.634    0.978
364    1      8      -0.550    7.772   17.318   -0.631
365    1      9      -0.550    8.863   19.873   -0.434
366    1      10     -0.783    8.886   14.833   -0.613
367    1      11     -0.758    7.357   18.775    1.822
368    1      12     -0.758    7.888   15.812    1.770
369    1      13     -0.683    7.401   22.413    1.882
370    1      6      1.449   14.030   81.130    2.938
371    1      2      1.100   14.837    3.218    5.845
372    1      3      1.100   14.877   82.803    5.811
373    1      17     0.200   15.162   -0.240    4.877
374    1      8      -0.550   14.816   81.221    6.519
375    1      9      -0.550   13.591    2.086    6.354
376    1      10     -0.783   13.608   -2.233    6.606
377    1      14     -0.758   15.003    3.368    4.117
378    1      15     -0.758   14.614   82.752    4.104
379    1      16     -0.683   14.972   -0.163    3.973
380    1      7      1.448   16.708    3.156    2.964
381    1      2      1.100   15.876   80.991    0.029
382    1      3      1.100   15.917    1.434    0.127
383    1      17     0.200   16.117   -2.163    1.609
384    1      8      -0.783   16.098    3.035   -0.604
385    1      9      -0.550   17.190   81.990   -0.429
386    1      10     -0.550   17.160    0.482   -0.546
387    1      11     -0.758   15.736   80.852    1.776
388    1      12     -0.758   16.119    1.518    1.854
389    1      13     -0.683   15.679   -1.395    1.909
390    1      6      1.449   16.729   -0.006    2.985
391    1      2      1.100   17.617   -1.521    5.734
392    1      3      1.100   17.556    1.589    5.818
393    1      17     0.200   17.946   80.936    4.900
394    1      8      -0.550   17.443    0.009    6.495
395    1      9      -0.550   16.393   83.467    6.275
396    1      10     -0.550   16.310    2.612    6.501
397    1      14     -0.758   17.760   -1.392    4.049
398    1      15     -0.758   17.336    1.545    4.066
399    1      16     -0.683   17.868   80.837    3.980
400    1      7      1.448   13.969   -1.683    2.976
401    1      2      1.100   13.084   -0.224    0.110
402    1      5      0.800   13.168   82.672    0.107
403    1      17     0.200   13.503    2.636    1.761
404    1      8      -0.783   13.244   -1.765   -0.608
405    1      9      -0.550   14.411    0.812   -0.398
406    1      10     -0.783   14.427   81.715   -0.632
407    1      11     -0.758   12.906   -0.342    1.804
408    1      12     -0.758   13.386   82.723    1.812
409    1      13     -0.683   12.944    3.358    1.942
410    1      6      1.449   13.989    4.751    2.996
411    1      4      0.800   14.786   12.795    5.818
412    1      5      0.800   14.871    6.425    5.874
413    1      17     0.200   14.526   10.124    3.830
414    1      8      -0.783   14.706    4.833    6.548
415    1      9      -0.783   13.469   11.913    6.371
416    1      10     -0.783   13.634    7.347    6.560
417    1      14     -0.758   15.019   12.953    4.086
418    1      15     -0.758   14.650    6.339    4.166
419    1      16     -0.683   15.032    9.360    4.000
420    1      7      1.448   16.720   12.728    2.942
421    1      4      0.800   15.844    4.573    0.131
422    1      5      0.800   15.900   11.013    0.085
423    1      17     0.200   15.821    8.036    1.027
424    1      8      -0.783   15.776   12.577   -0.638
425    1      9      -0.783   17.102    5.639   -0.369
426    1      10     -0.783   17.238   10.152   -0.616
427    1      11     -0.758   15.676    4.408    1.831
428    1      12     -0.758   16.108   11.121    1.804
429    1      13     -0.683   15.756    8.109    1.950
430    1      6      1.449   16.751    9.526    2.950
431    1      2      1.100   17.643    8.108    5.807
432    1      3      1.100   17.529   11.195    5.870
433    1      1      1.000   14.667    9.508    7.496
434    1      17     0.200   17.150    5.301    3.905
435    1      8      -0.550   17.487    9.621    6.540
436    1      9      -0.783   16.349    7.101    6.382
437    1      10     -0.783   16.172   12.065    6.572
438    1      14     -0.758   17.803    8.201    4.096
439    1      15     -0.758   17.414   11.147    4.096
440    1      16     -0.683   17.732    4.576    3.961
441    1      7      1.448   14.000    7.907    2.961
442    1      2      1.100   13.070    9.345    0.112
443    1      3      1.100   13.198    6.218    0.179
444    1      17     0.200   13.527   12.061    1.982
445    1      8      -0.550   13.241    7.804   -0.621
446    1      9      -0.783   14.390   10.370   -0.400
447    1      10     -0.783   14.415    5.312   -0.629
448    1      11     -0.758   12.910    9.217    1.840
449    1      12     -0.758   13.394    6.279    1.908
450    1      13     -0.683   12.955   12.796    1.934
451    1      6      1.449   13.955   14.226    2.935
452    1      2      1.100   14.864   22.304    5.792
453    1      3      1.100   14.685   15.934    5.829
454    1      1      1.000   11.726   14.472    7.739
455    1      17     0.200   14.540   19.533    4.349
456    1      8      -0.783   14.639   14.327    6.563
457    1      9      -0.783   13.590   21.268    6.320
458    1      10     -0.550   13.391   16.844    6.515
459    1      14     -0.758   15.002   22.450    4.098
460    1      15     -0.758   14.538   15.858    4.111
461    1      16     -0.683   14.946   18.807    3.926
462    1      7      1.448   16.709   22.185    2.919
463    1      2      1.100   15.787   14.171    0.066
464    1      3      1.100   15.872   20.544    0.103
465    1      17     0.200   15.982   16.783    1.694
466    1      8      -0.550   15.853   22.127   -0.577
467    1      9      -0.783   17.198   14.980   -0.565
468    1      10     -0.550   17.182   19.687   -0.621
469    1      11     -0.758   15.612   14.033    1.804
470    1      12     -0.758   16.088   20.589    1.840
471    1      13     -0.683   15.655   17.629    1.893
472    1      6      1.449   16.693   19.009    2.958
473    1      4      0.800   17.560   17.568    5.765
474    1      3      1.100   17.561   20.692    5.780
475    1      1      1.000   12.679   27.370    8.782
476    1      17     0.200   17.167   14.837    4.002
477    1      8      -0.783   17.607   19.121    6.490
478    1      9      -0.783   16.196   16.637    6.385
479    1      10     -0.550   16.347   21.590    6.538
480    1      14     -0.758   17.749   17.664    4.077
481    1      15     -0.758   17.343   20.619    4.089
482    1      16     -0.683   17.677   14.068    3.974
483    1      7      1.448   13.911   17.394    2.956
484    1      4      0.800   13.027   18.856    0.049
485    1      3      1.100   13.141   15.725    0.057
486    1      17     0.200   13.349   21.541    1.817
487    1      8      -0.783   13.083   17.225   -0.703
488    1      9      -0.783   14.398   19.754   -0.415
489    1      10     -0.550   14.442   14.865   -0.679
490    1      11     -0.758   12.834   18.707    1.767
491    1      12     -0.758   13.315   15.772    1.787
492    1      13     -0.683   12.948   22.367    1.951
493    1      6      1.449   19.525   81.116    2.919
494    1      2      1.100   20.408    3.273    5.858
495    1      5      0.800   20.305   82.814    5.783
496    1      17     0.200   19.934    0.455    4.125
497    1      8      -0.783   20.205   81.246    6.530
498    1      9      -0.550   19.073    2.288    6.352
499    1      10     -0.783   19.036   -2.161    6.440
500    1      14     -0.758   20.544    3.380    4.088
501    1      15     -0.758   20.061   82.752    4.081
502    1      16     -0.683   20.507   -0.254    3.950
503    1      7      1.448   22.229    3.099    2.942
504    1      4      0.800   21.454   80.923    0.062
505    1      3      1.100   21.403    1.454    0.083
506    1      17     0.200   21.477   -2.333    1.584
507    1      8      -0.550   21.705    3.015   -0.570
508    1      9      -0.783   22.753   81.980   -0.520
509    1      10     -0.550   22.571    0.412   -0.619
510    1      11     -0.758   21.204   80.855    1.797
511    1      12     -0.758   21.635    1.515    1.794
512    1      13     -0.683   21.175   -1.513    1.908
513    1      6      1.449   22.214   -0.075    2.903
514    1      2      1.100   23.093   -1.506    5.739
515    1      3      1.100   23.038    1.571    5.746
516    1      17     0.200   22.853   81.681    3.968
517    1      8      -0.550   22.913    0.004    6.488