LAMMPS (6 Dec 2012)
Scanning data file ...
  6 = max bonds/atom
  15 = max angles/atom
Reading data file ...
  orthogonal box = (-2.4702 -2.4331 -25) to (80.3472 83.5708 25)
  1 by 1 by 1 MPI processor grid
  22680 atoms
  32400 bonds
  84240 angles
Finding 1-2 1-3 1-4 neighbors ...
  6 = max # of 1-2 neighbors
  13 = max # of 1-3 neighbors
  54 = max # of 1-4 neighbors
  37 = max # of special neighbors
WARNING: No fixes defined, atoms won't move (verlet.cpp:54)
PPPM initialization ...
  G vector (1/distance)= 0.26959
  grid = 45 45 30
  stencil order = 5
  estimated absolute RMS force accuracy = 0.0386524
  estimated relative force accuracy = 0.000116401
  using double precision FFTs
  3d grid and FFT values/proc = 100048 60750
Setting up run ...
Memory usage per processor = 74.5901 Mbytes
E_bond E_angle E_dihed E_impro E_pair E_vdwl E_coul PotEng KinEng TotEng Temp 
   10094.639    16933.746            0            0     428157.1    697.21863    1270206.8    455185.49            0    455185.49            0 
Loop time of 9.53674e-07 on 1 procs for 0 steps with 22680 atoms

Pair  time (%) = 0 (0)
Bond  time (%) = 0 (0)
Kspce time (%) = 0 (0)
Neigh time (%) = 0 (0)
Comm  time (%) = 0 (0)
Outpt time (%) = 0 (0)
Other time (%) = 9.53674e-07 (100)

FFT time (% of Kspce) = 0 (0)
FFT Gflps 3d (1d only) = 0 0

Nlocal:    22680 ave 22680 max 22680 min
Histogram: 1 0 0 0 0 0 0 0 0 0
Nghost:    29356 ave 29356 max 29356 min
Histogram: 1 0 0 0 0 0 0 0 0 0
Neighs:    5.47208e+06 ave 5.47208e+06 max 5.47208e+06 min
Histogram: 1 0 0 0 0 0 0 0 0 0

Total # of neighbors = 5472085
Ave neighs/atom = 241.274
Ave special neighs/atom = 21.7143
Neighbor list builds = 0
Dangerous builds = 0
0 0
Neighs:    5.47208e+06 ave 5.47208e+06 max 5.47208e+06 min
Histogram: 1 0 0 0 0 0 0 0 0 0

Total # of neighbors = 5472085
Ave neighs/atom = 241.274
Ave special neighs/atom = 21.7143
Neighbor list builds = 0
Dangerous builds = 0
