bmim

25 atoms
25 bonds
45 angles
33 dihedrals

10 atom types
7 bond types
11 angle types
9 dihedral types

-2.4702   80.3472 xlo xhi
-2.4331   83.5708 ylo yhi
0.0000   430.0914 zlo zhi

Masses

1 14.0067
2 12.0107
3 12.0107
4 12.0107
5 12.0107
6 12.0107
7 12.0107
8 1.00794
9 1.00794
10 1.00794

Pair Coeffs

1   0.1700   3.2500
2   0.0660   3.5000
3   0.0700   3.5500
4   0.0660   3.5000
5   0.0660   3.5000
6   0.0660   3.5000
7   0.0700   3.5500
8   0.0300   1.7200
9   0.0300   1.9200
10   0.0300   2.5000

Bond Coeffs

1 339.9857   1.0800
2 339.9857   1.0900
3 477.0554   1.3150
4 427.1033   1.3780
5 520.0765   1.3410
6 336.9981   1.4660
7 267.9254   1.5290

Angle Coeffs

1  70.0048 108.0000
2  70.0048 125.6000
3  70.0048 126.4000
4  35.0024 125.1000
5  70.0048 109.8000
6  70.0048 107.1000
7  35.0024 122.0000
8  35.0024 130.9000
9  37.5000 110.7000
10  58.3533 112.7000
11  32.9947 107.8000

Dihedral Coeffs

1   0.0000   4.6511   0.0000   0.0000
2   0.0000   2.9995   0.0000   0.0000
3   0.0000  10.7505   0.0000   0.0000
4   0.0000   0.0000   0.1240   0.0000
5  -1.7097   1.4595   0.1897   0.0000
6  -1.2593   0.0000   0.0000   0.0000
7  -1.7877   0.7563  -0.2874   0.0000
8   0.0000   2.0005   0.0000   0.0000
9   0.0000   2.1989   0.0000   0.0000

Atoms

1      1      1      0.150   64.087   83.490  216.463
2      1      2      -0.170   64.749   84.436  215.549
3      1      3      -0.110   63.617   83.904  217.613
4      1      4      0.010   66.227   84.317  215.455
5      1      5      -0.120   66.967   85.261  216.443
6      1      6      -0.180   68.426   85.533  216.084
7      1      1      0.150   63.084   82.938  218.295
8      1      7      -0.130   63.397   81.739  217.597
9      1      7      -0.130   64.171   82.109  216.517
10     1      2      -0.170   62.470   83.037  219.614
11     1      8      0.210   63.576   84.911  218.015
12     1      8      0.210   63.198   80.744  218.022
13     1      8      0.210   64.636   81.413  215.816
14     1      9      0.130   62.309   83.980  220.148
15     1      9      0.130   62.965   82.366  220.395
16     1      9      0.130   61.413   82.703  219.580
17     1      9      0.130   64.386   84.313  214.563
18     1      9      0.130   64.406   85.490  215.836
19     1      10     0.060   66.510   83.262  215.592
20     1      10     0.060   66.480   84.700  214.411
21     1      10     0.060   66.565   86.240  216.486
22     1      10     0.060   66.880   84.992  217.474
23     1      10     0.060   69.023   84.672  216.134
24     1      10     0.060   68.566   85.879  215.078
25     1      10     0.060   68.852   86.117  216.910

Bonds

1 1 3 11
2 1 8 12
3 1 9 13
4 2 6 23
5 2 6 24
6 2 6 25
7 2 5 21
8 2 5 22
9 2 4 19
10 2 4 20
11 2 2 17
12 2 2 18
13 2 10 14
14 2 10 15
15 2 10 16
16 3 1 3
17 3 7 3
18 4 8 7
19 4 9 1
20 5 8 9
21 6 7 10
22 6 1 2
23 7 2 4
24 7 4 5
25 7 5 6

Angles

1 1 9 1 3
2 1 8 7 3
3 2 8 7 10
4 2 9 1 2
5 3 3 1 2
6 3 3 7 10
7 4 1 3 11
8 4 7 3 11
9 5 1 3 7
10 6 1 9 8
11 6 7 8 9
12 7 1 9 13
13 7 7 8 12
14 8 9 8 12
15 8 8 9 13
16 9 7 10 14
17 9 7 10 15
18 9 7 10 16
19 9 1 2 17
20 9 1 2 18
21 10 1 2 4
22 10 2 4 5
23 10 4 5 6
24 9 2 4 19
25 9 2 4 20
26 9 4 2 17
27 9 4 2 18
28 9 5 4 19
29 9 5 4 20
30 9 4 5 21
31 9 4 5 22
32 9 6 5 21
33 9 6 5 22
34 9 5 6 23
35 9 5 6 24
36 9 5 6 25
37 11 17 2 18
38 11 19 4 20
39 11 21 5 22
40 11 23 6 24
41 11 24 6 25
42 11 23 6 25
43 11 14 10 15
44 11 15 10 16
45 11 14 10 16

Dihedrals

1 1 8 7 3 1
2 1 9 1 3 7
3 1 8 7 3 11
4 1 9 1 3 11
5 1 10 7 3 1
6 1 2 1 3 7
7 1 2 1 3 11
8 1 10 7 3 11
9 2 3 1 9 8
10 2 3 7 8 9
11 2 3 1 9 13
12 2 3 7 8 12
13 2 10 7 8 9
14 2 2 1 9 8
15 2 10 7 8 12
16 2 2 1 9 13
17 3 1 9 8 7
18 3 1 9 8 12
19 3 7 8 9 13
20 3 13 9 8 12
21 4 8 7 10 14
22 4 8 7 10 15
23 4 8 7 10 16
24 4 9 1 2 17
25 4 9 1 2 18
26 5 9 1 2 4
27 6 3 1 2 4
28 7 1 2 4 5
29 8 3 8 7 10
30 8 3 9 1 2
31 9 1 7 3 11
32 9 7 9 8 12
33 9 1 8 9 13
