LAMMPS (6 Dec 2012)
units real
atom_style full

dimension 3
boundary p p p

pair_style lj/cut/coul/long 9.0 10.0
pair_modify mix geometric
kspace_style pppm 1.0e-5

bond_style harmonic
angle_style harmonic
special_bonds lj 0.0 0.0 0.5 coul 0.0 0.0 0.5

read_data data.lmp
  4 = max bonds/atom
  6 = max angles/atom
  orthogonal box = (26.16 28.47 26.03) to (56.2661 58.5761 56.1361)
  1 by 1 by 1 MPI processor grid
  9 atoms
  9 velocities
  8 bonds
  13 angles
  4 = max # of 1-2 neighbors
  4 = max # of 1-3 neighbors
  7 = max # of 1-4 neighbors
  8 = max # of special neighbors

thermo_style custom ebond eangle edihed eimp epair evdwl ecoul elong etail pe

run 0
WARNING: No fixes defined, atoms won't move (verlet.cpp:54)
PPPM initialization ...
  G vector (1/distance) = 0.224132
  grid = 10 10 10
  stencil order = 5
  estimated absolute RMS force accuracy = 0.0028104
  estimated relative force accuracy = 8.46342e-06
  using double precision FFTs
  3d grid and FFT values/proc = 3375 1000
Memory usage per processor = 5.28301 Mbytes
E_bond E_angle E_dihed E_impro E_pair E_vdwl E_coul E_long E_tail PotEng 
  0.31323687     4.808182            0            0    1.3720598 -0.086278353    31.003619   -29.545281            0    6.4934787 
Loop time of 9.53674e-07 on 1 procs for 0 steps with 9 atoms

Pair  time (%) = 0 (0)
Bond  time (%) = 0 (0)
Kspce time (%) = 0 (0)
Neigh time (%) = 0 (0)
Comm  time (%) = 0 (0)
Outpt time (%) = 0 (0)
Other time (%) = 9.53674e-07 (100)

FFT time (% of Kspce) = 0 (0)
FFT Gflps 3d (1d only) = 0 0

Nlocal:    9 ave 9 max 9 min
Histogram: 1 0 0 0 0 0 0 0 0 0
Nghost:    63 ave 63 max 63 min
Histogram: 1 0 0 0 0 0 0 0 0 0
Neighs:    36 ave 36 max 36 min
Histogram: 1 0 0 0 0 0 0 0 0 0

Total # of neighbors = 36
Ave neighs/atom = 4
Ave special neighs/atom = 7.33333
Neighbor list builds = 0
Dangerous builds = 0
