topol

9 atoms
8 bonds

4 atom types
4 bond types

 26.160000  66.266100 xlo xhi
 28.470000  68.576100 ylo yhi
 26.030000  66.136100 zlo zhi

Masses

1  12.0110
2   1.0080
3  15.9994
4   1.0080

Pair Coeffs

1   0.0660   3.5000
2   0.0300   2.5000
3   0.1700   3.1200
4   0.0000   0.0000

Bond Coeffs

1   harmonic 340.00000000         1.09000000
2   harmonic 553.00000000         0.94500000
3   morse    320.00000000         1.41000000  1.2
4   morse    268.00000000         1.52900000  1.3

Atoms

     1      1      1  27.110   29.460   28.030
     2      1      2  27.090   28.470   27.570
     3      1      2  26.160   29.540   28.550
     4      1      3   28.040   29.570   29.070
     5      1      4  28.830   29.460   28.570
     6      1      1   27.320   30.480   26.870
     7      1      2  28.330   30.640   26.490
     8      1      2  27.000   31.450   27.230
     9      1      2  26.630   30.350   26.030

Velocities

     1   0.0000   0.0000   0.0000
     2   0.0000   0.0000   0.0000
     3   0.0000   0.0000   0.0000
     4   0.0000   0.0000   0.0000
     5   0.0000   0.0000   0.0000
     6   0.0000   0.0000   0.0000
     7   0.0000   0.0000   0.0000
     8   0.0000   0.0000   0.0000
     9   0.0000   0.0000   0.0000

Bonds

     1      1      1      2
     2      1      6      9
     3      1      1      3
     4      1      6      7
     5      1      6      8
     6      2      4      5
     7      3      1      4
     8      4      1      6
